
    -----------------------------------------------------------------------
          Psi4: An Open-Source Ab Initio Electronic Structure Package
                               Psi4 1.9 release

                         Git: Rev {} zzzzzzz 


    D. G. A. Smith, L. A. Burns, A. C. Simmonett, R. M. Parrish,
    M. C. Schieber, R. Galvelis, P. Kraus, H. Kruse, R. Di Remigio,
    A. Alenaizan, A. M. James, S. Lehtola, J. P. Misiewicz, M. Scheurer,
    R. A. Shaw, J. B. Schriber, Y. Xie, Z. L. Glick, D. A. Sirianni,
    J. S. O'Brien, J. M. Waldrop, A. Kumar, E. G. Hohenstein,
    B. P. Pritchard, B. R. Brooks, H. F. Schaefer III, A. Yu. Sokolov,
    K. Patkowski, A. E. DePrince III, U. Bozkaya, R. A. King,
    F. A. Evangelista, J. M. Turney, T. D. Crawford, C. D. Sherrill,
    J. Chem. Phys. 152(18) 184108 (2020). https://doi.org/10.1063/5.0006002

                            Additional Code Authors
    E. T. Seidl, C. L. Janssen, E. F. Valeev, M. L. Leininger,
    J. F. Gonthier, R. M. Richard, H. R. McAlexander, M. Saitow, X. Wang,
    P. Verma, M. H. Lechner, A. Jiang, S. Behnle, A. G. Heide,
    M. F. Herbst, and D. L. Poole

             Previous Authors, Complete List of Code Contributors,
                       and Citations for Specific Modules
    https://github.com/psi4/psi4/blob/master/codemeta.json
    https://github.com/psi4/psi4/graphs/contributors
    http://psicode.org/psi4manual/master/introduction.html#citing-psifour

    -----------------------------------------------------------------------


    Psi4 started on: Wednesday, 07 February 2024 07:53PM

    Process ID: 1615503
    Host:       n2cn0618
    PSIDATADIR: /opt/software/pc2/EB-SW/software/PSI4/1.9-foss-2022a/share/psi4
    Memory:     500.0 MiB
    Threads:    16
    
  ==> Input File <==

--------------------------------------------------------------------------
memory 80 GB # how much memory is available ! Depends on the nodes/cores !

molecule dimer {
# monomer A
-1 1    # Charge and multiplicity
B -1.977592e-04  2.742729e-04 -2.699966
F  1.123153e-16  1.430594e-17 -1.287181
F  1.147860e+00  6.757812e-01 -3.171107
F  1.191806e-02 -1.332011e+00 -3.170905
F -1.159666e+00  6.560735e-01 -3.170826
--
# monomer B
0 1     # Charge and multiplicity
C   -3.66844126402057      7.80375217008252      0.00190004133558
C   -4.84759871934653      7.13124183134024     -0.00046653359696
C   -4.89495929917518      5.69633040353158     -0.00103944469517
C   -3.65374067877320      4.98073034095895      0.00662099703436
C   -2.40942512149445      7.11398103667468      0.00209438359570
C   -2.42547734410473      5.68112195090346     -0.00491050527438
C   -1.19474401643570      7.78614419430947      0.00356656413763
C   0.03795902893699      7.09942164575698      0.00139585983271
C   0.03033258741920      5.66948955970466     -0.00408752508301
C   -1.20098450790502      4.96927034791531      0.00488220885047
C   1.27795782581485      7.77285944319479      0.00277170839332
C   2.48535808472416      7.08769688523756      0.00049722048857
C   2.48612868491717      5.65477081024076     -0.00644052849921
C   1.25408291964399      4.95607811366431      0.00518741308898
C   3.75171459140595      7.76391215098033      0.00062407186893
C   4.92356605618520      7.07878077698995     -0.00143240883900
C   4.95560727132542      5.64344746336949     -0.00159282164606
C   3.70680153420475      4.94121020833308      0.00349873852374
H   -3.65852113775815      8.89082741913536      0.00358502958574
H   -1.18921332975660      8.87412108735996      0.00753844057883
H   1.28429423888630      8.86083343548850      0.00693053253426
H   3.75354208679975      8.85103527897216      0.00214659618464
H   5.86995870320703      7.61379483465560     -0.00235777588134
H   -5.78823170750226      7.67630221293400     -0.00202638095293
C   -6.09197395869619      4.99326001364347     -0.00291168518608
C   -6.12866148031747      3.58258016879823     -0.00171050815740
C   -3.66457974004527      3.56418217974434     -0.00463560277484
C   -4.89429820469869      2.86108077590057      0.00453338221034
C   -2.43733499489796      2.84761165708481      0.00719617576166
C   -1.20922785759670      3.54788693497833     -0.00648285103018
C   1.24714157216223      3.53468075142962     -0.00729145743546
C   0.01517603956900      2.83311183930540      0.00439272578912
C   2.46764517244071      2.82128997725533      0.00449278391269
C   3.70254947457969      3.52466015442405     -0.00899517692985
C   6.14498038638375      4.92757236613191     -0.00282626685777
C   6.16658835886151      3.51658447594213     -0.00065971342101
C   4.92460995845939      2.80840792535402      0.00587903281610
H   7.08990550964105      5.46688776622306     -0.00658814770723
H   -7.03104175110130      5.54268795285765     -0.00714490013730
C   -7.33969804112295      2.85841153457957     -0.00333767559888
C   -7.36488195805880      1.47032337158330     -0.00157213747140
C   -4.90350460894690      1.44442681216000     -0.00628840166334
C   -6.13225715261081      0.73993935705394      0.00600164231964
C   -3.67687480051673      0.72669714267312      0.00433931473643
C   -2.44565658606518      1.42964113326212     -0.00597039546461
C   -1.22360068130162      0.71532450163492      0.00545886906656
C   0.00763786931376      1.41738314923765      0.00392452278437
C   1.23121980774686      0.70211669058719     -0.01490206287210
C   2.46082110053113      1.40329203612573      0.00460244601878
C   3.68443025419614      0.68719842821222      0.00377365974158
C   4.91870890153864      1.39173456118907     -0.00862816189375
C   7.36980207796101      2.77948220318441     -0.00242013321349
C   7.38016266612146      1.39121750785509     -0.00087345036788
C   6.13979953912259      0.67411862320065      0.00545489144369
H   -8.27919079934664      3.40711804112415     -0.00763522772059
H   8.31511347147953      3.31811809662368     -0.00663070901292
C   -8.59175593758115      0.72483255304480     -0.00123170985383
C   -8.59902460370342     -0.63263980622873      0.00089141472904
C   -6.13981313911873     -0.67413663715361     -0.00609792660607
C   -7.38018411213749     -1.39126618958160      0.00131813493501
C   -4.91868448025621     -1.39175501803000      0.00624257154343
C   -3.68443829568458     -0.68723731573599     -0.00478966852105
C   -2.46081704024768     -1.40334517882457      0.00575341766833
C   -1.23116201232071     -0.70217386488055     -0.00636696112346
C   -0.00756962538737     -1.41741884941102      0.00108956317991
C   1.22364771588843     -0.71527537726392      0.01109518512883
C   2.44567064933149     -1.42964328900682     -0.00065482763106
C   3.67686670284649     -0.72670743155550     -0.00479541202602
C   6.13224884641929     -0.73997883984993     -0.00632338623858
C   4.90351914550401     -1.44445752054090      0.00751768830159
C   8.59901484869081      0.63260386666793     -0.00101133422380
C   8.59174548810050     -0.72485086719319      0.00072504603735
C   7.36486276438985     -1.47033266560598      0.00049486934466
H   -9.52830597181814      1.27684744919284     -0.00270163681798
H   9.54141097460619      1.17457248844457     -0.00206336648518
C   -7.36983790976868     -2.77954514593389      0.00312634335708
C   -4.92459910905015     -2.80843725734101     -0.00460528907921
C   -6.16662249566744     -3.51665219282533      0.00169655107992
C   -3.70251035970491     -3.52468154912026      0.00571878010666
C   -2.46764698511392     -2.82132596280400     -0.00632585824990
C   -0.01513347410770     -2.83314164539971     -0.00604426974092
C   -1.24712184122656     -3.53473217556300      0.00551968366725
C   1.20924506964357     -3.54791467864352      0.00805871345849
C   2.43733602215464     -2.84764173817541     -0.00608104485234
C   4.89430234377080     -2.86112296828604     -0.00526030478103
C   3.66461525504104     -3.56421984553201      0.00761911515957
C   6.12863901474565     -3.58258405771778      0.00096495711699
C   7.33967266469532     -2.85841330737039      0.00248018319869
H   -9.54144911125902     -1.17456346666430      0.00226083090216
H   9.52826186807155     -1.27691907390448      0.00197485379837
H   -8.31516504384864     -3.31814985321231      0.00729857188773
H   8.27915514249207     -3.40714078989363      0.00681973918158
C   -6.14499418870218     -4.92764727278338      0.00302254913999
C   -3.70678334799751     -4.94126171411716     -0.00679841894792
C   -4.95559005800169     -5.64349397349412      0.00116871569699
C   -2.48612132622665     -5.65478557440947      0.00614125209662
C   -1.25405833548005     -4.95612205000132     -0.00503435388927
C   1.20101257386816     -4.96928038819302     -0.00385322963129
C   -0.03033667441341     -5.66952030313900      0.00398997003238
C   3.65375010132847     -4.98074377541453     -0.00309522988330
C   2.42549269587528     -5.68117463552727      0.00628170066869
C   6.09196561781097     -4.99325796338655      0.00325918379042
C   4.89497644461045     -5.69634842095790      0.00202298796027
H   -7.08989238804069     -5.46699984223871      0.00742531082125
H   7.03105520920009     -5.54265853633254      0.00683896355417
C   -4.92354532219813     -7.07882109967734      0.00061394679214
C   -2.48534208823777     -7.08772807792913     -0.00189594564379
C   -3.75168589177895     -7.76394715763627     -0.00170126671874
C   -0.03794895698805     -7.09946487446944     -0.00168022049625
C   -1.27795610040136     -7.77290438466689     -0.00366491325785
C   2.40944432072629     -7.11402201200282     -0.00081701968533
C   1.19474993715296     -7.78618536556242     -0.00296931056689
C   4.84762105249800     -7.13126211057943      0.00168979497423
C   3.66847160587561     -7.80378799294376     -0.00065863938960
H   -5.86994035041618     -7.61383059804164      0.00215798365757
H   5.78824962538815     -7.67633218931421      0.00281691445618
H   -3.75352693944918     -8.85107156923607     -0.00353718114765
H   -1.28430440589466     -8.86087539249706     -0.00809229711623
H   1.18922157469537     -8.87416062058945     -0.00706194725726
H   3.65854661482387     -8.89086063405326     -0.00231318081200

    units angstrom      # Angstroms are the default
    no_reorient         # Geometry fixed, default
    symmetry c1         # C1 symmetry, default
}

set {
    scf_type DF         # Density fitting, faster than exact integrals
    freeze_core True    # Freeze core electrons
    basis jun-cc-pVDZ   # Jun-cc-pVDZ basis set, recommended for sSAPT0 in https://doi.org/10.1063/1.4867135
}

energy('ssapt0')        # Compute sSAPT0 energy, includes also SAPT0
--------------------------------------------------------------------------

  Memory set to  74.506 GiB by Python driver.

Scratch directory: /tmp/
   => Loading Basis Set <=

    Name: JUN-CC-PVDZ
    Role: ORBITAL
    Keyword: BASIS
    atoms 1                                                   entry B          line   130 file /opt/software/pc2/EB-SW/software/PSI4/1.9-foss-2022a/share/psi4/basis/jun-cc-pvdz.gbs 
    atoms 2-5                                                 entry F          line   266 file /opt/software/pc2/EB-SW/software/PSI4/1.9-foss-2022a/share/psi4/basis/jun-cc-pvdz.gbs 
    atoms 6-23, 30-42, 45-59, 62-78, 81-93, 98-108, 111-119   entry C          line   164 file /opt/software/pc2/EB-SW/software/PSI4/1.9-foss-2022a/share/psi4/basis/jun-cc-pvdz.gbs 
    atoms 24-29, 43-44, 60-61, 79-80, 94-97, 109-110, 120-125 entry H          line    36 file /opt/software/pc2/EB-SW/software/PSI4/1.9-foss-2022a/share/psi4/basis/jun-cc-pvdz.gbs 

   => Loading Basis Set <=

    Name: JUN-CC-PVDZ
    Role: ORBITAL
    Keyword: BASIS
    atoms 1                                                   entry B          line   130 file /opt/software/pc2/EB-SW/software/PSI4/1.9-foss-2022a/share/psi4/basis/jun-cc-pvdz.gbs 
    atoms 2-5                                                 entry F          line   266 file /opt/software/pc2/EB-SW/software/PSI4/1.9-foss-2022a/share/psi4/basis/jun-cc-pvdz.gbs 
    atoms 6-23, 30-42, 45-59, 62-78, 81-93, 98-108, 111-119   entry C          line   164 file /opt/software/pc2/EB-SW/software/PSI4/1.9-foss-2022a/share/psi4/basis/jun-cc-pvdz.gbs 
    atoms 24-29, 43-44, 60-61, 79-80, 94-97, 109-110, 120-125 entry H          line    36 file /opt/software/pc2/EB-SW/software/PSI4/1.9-foss-2022a/share/psi4/basis/jun-cc-pvdz.gbs 


  //>>>>>>>>>>>>>>>>>>>>>>>>>>>>>>>>>>>//
  //              Dimer HF             //
  //<<<<<<<<<<<<<<<<<<<<<<<<<<<<<<<<<<<//

   => Libint2 <=

    Primary   basis highest AM E, G, H:  5, 4, 3
    Auxiliary basis highest AM E, G, H:  6, 5, 4
    Onebody   basis highest AM E, G, H:  6, 5, 4
    Solid Harmonics ordering:            gaussian

*** tstart() called on n2cn0618
*** at Wed Feb  7 19:53:58 2024

   => Loading Basis Set <=

    Name: JUN-CC-PVDZ
    Role: ORBITAL
    Keyword: BASIS
    atoms 1                                                   entry B          line   130 file /opt/software/pc2/EB-SW/software/PSI4/1.9-foss-2022a/share/psi4/basis/jun-cc-pvdz.gbs 
    atoms 2-5                                                 entry F          line   266 file /opt/software/pc2/EB-SW/software/PSI4/1.9-foss-2022a/share/psi4/basis/jun-cc-pvdz.gbs 
    atoms 6-23, 30-42, 45-59, 62-78, 81-93, 98-108, 111-119   entry C          line   164 file /opt/software/pc2/EB-SW/software/PSI4/1.9-foss-2022a/share/psi4/basis/jun-cc-pvdz.gbs 
    atoms 24-29, 43-44, 60-61, 79-80, 94-97, 109-110, 120-125 entry H          line    36 file /opt/software/pc2/EB-SW/software/PSI4/1.9-foss-2022a/share/psi4/basis/jun-cc-pvdz.gbs 


         ---------------------------------------------------------
                                   SCF
               by Justin Turney, Rob Parrish, Andy Simmonett
                          and Daniel G. A. Smith
                              RHF Reference
                       16 Threads,  76293 MiB Core
         ---------------------------------------------------------

  ==> Geometry <==

    Molecular point group: c1
    Full point group: C1

    Geometry (in Angstrom), charge = -1, multiplicity = 1:

       Center              X                  Y                   Z               Mass       
    ------------   -----------------  -----------------  -----------------  -----------------
         B           -0.000201921932     0.000288800891    -2.514005229567    11.009305360000
         F           -0.000004162732     0.000014527991    -1.101220229567    18.998403162730
         F            1.147855837268     0.675795727991    -2.985146229567    18.998403162730
         F            0.011913897268    -1.331996472009    -2.984944229567    18.998403162730
         F           -1.159670162732     0.656088027991    -2.984865229567    18.998403162730
         C           -3.668445426752     7.803766698073     0.187860811768    12.000000000000
         C           -4.847602882078     7.131256359331     0.185494236836    12.000000000000
         C           -4.894963461907     5.696344931522     0.184921325738    12.000000000000
         C           -3.653744841505     4.980744868950     0.192581767467    12.000000000000
         C           -2.409429284226     7.113995564665     0.188055154029    12.000000000000
         C           -2.425481506836     5.681136478894     0.181050265159    12.000000000000
         C           -1.194748179167     7.786158722300     0.189527334571    12.000000000000
         C            0.037954866205     7.099436173748     0.187356630266    12.000000000000
         C            0.030328424687     5.669504087695     0.181873245350    12.000000000000
         C           -1.200988670637     4.969284875906     0.190842979283    12.000000000000
         C            1.277953663083     7.772873971185     0.188732478826    12.000000000000
         C            2.485353921992     7.087711413228     0.186457990921    12.000000000000
         C            2.486124522185     5.654785338231     0.179520241934    12.000000000000
         C            1.254078756912     4.956092641655     0.191148183522    12.000000000000
         C            3.751710428674     7.763926678971     0.186584842302    12.000000000000
         C            4.923561893453     7.078795304981     0.184528361594    12.000000000000
         C            4.955603108594     5.643461991360     0.184367948787    12.000000000000
         C            3.706797371473     4.941224736324     0.189459508957    12.000000000000
         H           -3.658525300490     8.890841947126     0.189545800019     1.007825032230
         H           -1.189217492488     8.874135615351     0.193499211012     1.007825032230
         H            1.284290076155     8.860847963479     0.192891302967     1.007825032230
         H            3.753537924068     8.851049806963     0.188107366618     1.007825032230
         H            5.869954540475     7.613809362646     0.183602994552     1.007825032230
         H           -5.788235870234     7.676316740925     0.183934389480     1.007825032230
         C           -6.091978121428     4.993274541634     0.183049085247    12.000000000000
         C           -6.128665643049     3.582594696789     0.184250262276    12.000000000000
         C           -3.664583902777     3.564196707735     0.181325167658    12.000000000000
         C           -4.894302367430     2.861095303891     0.190494152643    12.000000000000
         C           -2.437339157630     2.847626185075     0.193156946195    12.000000000000
         C           -1.209232020328     3.547901462969     0.179477919403    12.000000000000
         C            1.247137409430     3.534695279420     0.178669312997    12.000000000000
         C            0.015171876837     2.833126367296     0.190353496222    12.000000000000
         C            2.467641009709     2.821304505246     0.190453554346    12.000000000000
         C            3.702545311848     3.524674682415     0.176965593503    12.000000000000
         C            6.144976223652     4.927586894122     0.183134503575    12.000000000000
         C            6.166584196130     3.516599003933     0.185301057012    12.000000000000
         C            4.924605795728     2.808422453345     0.191839803249    12.000000000000
         H            7.089901346909     5.466902294214     0.179372622726     1.007825032230
         H           -7.031045913833     5.542702480848     0.178815870296     1.007825032230
         C           -7.339702203855     2.858426062570     0.182623094834    12.000000000000
         C           -7.364886120791     1.470337899574     0.184388632962    12.000000000000
         C           -4.903508771679     1.444441340151     0.179672368770    12.000000000000
         C           -6.132261315343     0.739953885044     0.191962412753    12.000000000000
         C           -3.676878963248     0.726711670664     0.190300085169    12.000000000000
         C           -2.445660748797     1.429655661253     0.179990374968    12.000000000000
         C           -1.223604844033     0.715339029625     0.191419639499    12.000000000000
         C            0.007633706582     1.417397677228     0.189885293217    12.000000000000
         C            1.231215645015     0.702131218578     0.171058707561    12.000000000000
         C            2.460816937799     1.403306564116     0.190563216452    12.000000000000
         C            3.684426091464     0.687212956203     0.189734430174    12.000000000000
         C            4.918704738807     1.391749089180     0.177332608539    12.000000000000
         C            7.369797915229     2.779496731175     0.183540637219    12.000000000000
         C            7.380158503390     1.391232035846     0.185087320065    12.000000000000
         C            6.139795376391     0.674133151191     0.191415661877    12.000000000000
         H           -8.279194962078     3.407132569115     0.178325542712     1.007825032230
         H            8.315109308748     3.318132624614     0.179330061420     1.007825032230
         C           -8.591760100313     0.724847081035     0.184729060579    12.000000000000
         C           -8.599028766435    -0.632625278238     0.186852185162    12.000000000000
         C           -6.139817301850    -0.674122109163     0.179862843827    12.000000000000
         C           -7.380188274869    -1.391251661591     0.187278905368    12.000000000000
         C           -4.918688642988    -1.391740490039     0.192203341976    12.000000000000
         C           -3.684442458416    -0.687222787745     0.181171101912    12.000000000000
         C           -2.460821202979    -1.403330650834     0.191714188101    12.000000000000
         C           -1.231166175052    -0.702159336890     0.179593809309    12.000000000000
         C           -0.007573788119    -1.417404321420     0.187050333613    12.000000000000
         C            1.223643553157    -0.715260849273     0.197055955562    12.000000000000
         C            2.445666486600    -1.429628761016     0.185305942802    12.000000000000
         C            3.676862540115    -0.726692903565     0.181165358407    12.000000000000
         C            6.132244683688    -0.739964311859     0.179637384194    12.000000000000
         C            4.903514982772    -1.444442992550     0.193478458734    12.000000000000
         C            8.599010685959     0.632618394658     0.184949436209    12.000000000000
         C            8.591741325369    -0.724836339203     0.186685816470    12.000000000000
         C            7.364858601658    -1.470318137615     0.186455639778    12.000000000000
         H           -9.528310134550     1.276861977183     0.183259133615     1.007825032230
         H            9.541406811874     1.174587016435     0.183897403948     1.007825032230
         C           -7.369842072500    -2.779530617943     0.189087113790    12.000000000000
         C           -4.924603271782    -2.808422729350     0.181355481354    12.000000000000
         C           -6.166626658399    -3.516637664835     0.187657321513    12.000000000000
         C           -3.702514522437    -3.524667021130     0.191679550540    12.000000000000
         C           -2.467651147846    -2.821311434813     0.179634912183    12.000000000000
         C           -0.015137636839    -2.833127117409     0.179916500692    12.000000000000
         C           -1.247126003958    -3.534717647572     0.191480454100    12.000000000000
         C            1.209240906912    -3.547900150653     0.194019483891    12.000000000000
         C            2.437331859423    -2.847627210185     0.179879725581    12.000000000000
         C            4.894298181039    -2.861108440295     0.180700465652    12.000000000000
         C            3.664611092309    -3.564205317541     0.193579885592    12.000000000000
         C            6.128634852014    -3.582569529727     0.186925727550    12.000000000000
         C            7.339668501964    -2.858398779380     0.188440953632    12.000000000000
         H           -9.541453273991    -1.174548938674     0.188221601335     1.007825032230
         H            9.528257705340    -1.276904545914     0.187935624231     1.007825032230
         H           -8.315169206580    -3.318135325222     0.193259342321     1.007825032230
         H            8.279150979760    -3.407126261903     0.192780509614     1.007825032230
         C           -6.144998351434    -4.927632744793     0.188983319573    12.000000000000
         C           -3.706787510729    -4.941247186127     0.179162351485    12.000000000000
         C           -4.955594220733    -5.643479445504     0.187129486130    12.000000000000
         C           -2.486125488958    -5.654771046419     0.192102022530    12.000000000000
         C           -1.254062498212    -4.956107522011     0.180926416544    12.000000000000
         C            1.201008411136    -4.969265860202     0.182107540802    12.000000000000
         C           -0.030340837145    -5.669505775148     0.189950740465    12.000000000000
         C            3.653745938597    -4.980729247424     0.182865540550    12.000000000000
         C            2.425488533144    -5.681160107537     0.192242471102    12.000000000000
         C            6.091961455079    -4.993243435396     0.189219954223    12.000000000000
         C            4.894972281879    -5.696333892967     0.187983758393    12.000000000000
         H           -7.089896550772    -5.466985314248     0.193386081254     1.007825032230
         H            7.031051046468    -5.542644008342     0.192799733987     1.007825032230
         C           -4.923549484930    -7.078806571687     0.186574717225    12.000000000000
         C           -2.485346250970    -7.087713549939     0.184064824789    12.000000000000
         C           -3.751690054511    -7.763932629646     0.184259503714    12.000000000000
         C           -0.037953119720    -7.099450346479     0.184280549937    12.000000000000
         C           -1.277960263133    -7.772889856676     0.182295857175    12.000000000000
         C            2.409440157995    -7.114007484012     0.185143750748    12.000000000000
         C            1.194745774421    -7.786170837572     0.182991459866    12.000000000000
         C            4.847616889766    -7.131247582589     0.187650565407    12.000000000000
         C            3.668467443144    -7.803773464953     0.185302131043    12.000000000000
         H           -5.869944513148    -7.613816070051     0.188118754090     1.007825032230
         H            5.788245462656    -7.676317661324     0.188777684889     1.007825032230
         H           -3.753531102181    -8.851057041246     0.182423589285     1.007825032230
         H           -1.284308568626    -8.860860864507     0.177868473317     1.007825032230
         H            1.189217411964    -8.874146092599     0.178898823176     1.007825032230
         H            3.658542452092    -8.890846106063     0.183647589621     1.007825032230

  Running in c1 symmetry.

  Rotational constants: A =      0.00069  B =      0.00069  C =      0.00035 [cm^-1]
  Rotational constants: A =     20.55391  B =     20.55033  C =     10.55117 [MHz]
  Nuclear repulsion = 17922.704043057376111

  Charge       = -1
  Multiplicity = 1
  Electrons    = 642
  Nalpha       = 321
  Nbeta        = 321

  ==> Algorithm <==

  SCF Algorithm Type is DF.
  DIIS enabled.
  MOM disabled.
  Fractional occupation disabled.
  Guess Type is SAD.
  Energy threshold   = 1.00e-08
  Density threshold  = 1.00e-08
  Integral threshold = 1.00e-12

  ==> Primary Basis <==

  Basis Set: JUN-CC-PVDZ
    Blend: JUN-CC-PVDZ
    Number of shells: 880
    Number of basis functions: 1938
    Number of Cartesian functions: 2039
    Spherical Harmonics?: true
    Max angular momentum: 2

   => Loading Basis Set <=

    Name: (JUN-CC-PVDZ AUX)
    Role: JKFIT
    Keyword: DF_BASIS_SCF
    atoms 1                                                   entry B          line    90 file /opt/software/pc2/EB-SW/software/PSI4/1.9-foss-2022a/share/psi4/basis/jun-cc-pvdz-jkfit.gbs 
    atoms 2-5                                                 entry F          line   314 file /opt/software/pc2/EB-SW/software/PSI4/1.9-foss-2022a/share/psi4/basis/jun-cc-pvdz-jkfit.gbs 
    atoms 6-23, 30-42, 45-59, 62-78, 81-93, 98-108, 111-119   entry C          line   146 file /opt/software/pc2/EB-SW/software/PSI4/1.9-foss-2022a/share/psi4/basis/jun-cc-pvdz-jkfit.gbs 
    atoms 24-29, 43-44, 60-61, 79-80, 94-97, 109-110, 120-125 entry H          line    70 file /opt/software/pc2/EB-SW/software/PSI4/1.9-foss-2022a/share/psi4/basis/jun-cc-pvdz-jkfit.gbs 

  ==> Integral Setup <==

  ==> DiskDFJK: Density-Fitted J/K Matrices <==

    J tasked:                  Yes
    K tasked:                  Yes
    wK tasked:                  No
    OpenMP threads:             16
    Integrals threads:          16
    Memory [MiB]:            57220
    Algorithm:                Disk
    Integral Cache:           SAVE
    Schwarz Cutoff:          1E-12
    Fitting Condition:       1E-10

   => Auxiliary Basis Set <=

  Basis Set: (JUN-CC-PVDZ AUX)
    Blend: JUN-CC-PVDZ-JKFIT
    Number of shells: 2943
    Number of basis functions: 8531
    Number of Cartesian functions: 9791
    Spherical Harmonics?: true
    Max angular momentum: 3

  Minimum eigenvalue in the overlap matrix is 5.9932257631E-11.
  Reciprocal condition number of the overlap matrix is 2.4096399503E-12.
    Using canonical orthogonalization.
  Overall, 39 of 1938 possible MOs eliminated.


  ==> Pre-Iterations <==

  SCF Guess: Superposition of Atomic Densities via on-the-fly atomic UHF (no occupation information).

   -------------------------
    Irrep   Nso     Nmo    
   -------------------------
     A       1938    1899 
   -------------------------
    Total    1938    1899
   -------------------------

  ==> Iterations <==

                           Total Energy        Delta E     RMS |[F,P]|

   @DF-RHF iter SAD: -4086.39604770061851   -4.08640e+03   0.00000e+00 
   @DF-RHF iter   1: -4071.24013554787325    1.51559e+01   7.92181e-04 DIIS/ADIIS
   @DF-RHF iter   2: -4072.65691602555580   -1.41678e+00   3.09900e-04 DIIS/ADIIS
   @DF-RHF iter   3: -4072.82684536205306   -1.69929e-01   1.17154e-04 DIIS/ADIIS
   @DF-RHF iter   4: -4072.85299539113657   -2.61500e-02   5.60210e-05 DIIS
   @DF-RHF iter   5: -4072.85995075624305   -6.95537e-03   1.71205e-05 DIIS
   @DF-RHF iter   6: -4072.86077904634340   -8.28290e-04   5.86315e-06 DIIS
   @DF-RHF iter   7: -4072.86101629211589   -2.37246e-04   3.12520e-06 DIIS
   @DF-RHF iter   8: -4072.86111228524987   -9.59931e-05   1.41433e-06 DIIS
   @DF-RHF iter   9: -4072.86113959200839   -2.73068e-05   5.87254e-07 DIIS
   @DF-RHF iter  10: -4072.86114175938565   -2.16738e-06   1.93096e-07 DIIS
   @DF-RHF iter  11: -4072.86114201691362   -2.57528e-07   7.07511e-08 DIIS
   @DF-RHF iter  12: -4072.86114205403146   -3.71178e-08   3.72568e-08 DIIS
   @DF-RHF iter  13: -4072.86114206578259   -1.17511e-08   1.33450e-08 DIIS
   @DF-RHF iter  14: -4072.86114206709499   -1.31240e-09   6.22604e-09 DIIS
  Energy and wave function converged.


  ==> Post-Iterations <==

    Orbital Energies [Eh]
    ---------------------

    Doubly Occupied:                                                      

       1A    -26.151658     2A    -26.124372     3A    -26.124348  
       4A    -26.124205     5A    -11.192756     6A    -11.192747  
       7A    -11.192735     8A    -11.192730     9A    -11.192729  
      10A    -11.192713    11A    -11.192709    12A    -11.192691  
      13A    -11.192681    14A    -11.192679    15A    -11.192674  
      16A    -11.192653    17A    -11.191464    18A    -11.191451  
      19A    -11.191438    20A    -11.191401    21A    -11.191381  
      22A    -11.191357    23A    -11.190264    24A    -11.190260  
      25A    -11.190242    26A    -11.190239    27A    -11.190238  
      28A    -11.190233    29A    -11.188823    30A    -11.188819  
      31A    -11.188800    32A    -11.188799    33A    -11.188797  
      34A    -11.188791    35A    -11.187876    36A    -11.187866  
      37A    -11.187849    38A    -11.187750    39A    -11.187742  
      40A    -11.187707    41A    -11.187629    42A    -11.187576  
      43A    -11.187567    44A    -11.187452    45A    -11.187435  
      46A    -11.187408    47A    -11.186714    48A    -11.186672  
      49A    -11.186660    50A    -11.186582    51A    -11.186545  
      52A    -11.186504    53A    -11.186010    54A    -11.185955  
      55A    -11.185954    56A    -11.185827    57A    -11.185818  
      58A    -11.185743    59A    -11.185647    60A    -11.185603  
      61A    -11.185574    62A    -11.185520    63A    -11.185510  
      64A    -11.185496    65A    -11.184139    66A    -11.184106  
      67A    -11.184104    68A    -11.184064    69A    -11.184055  
      70A    -11.184037    71A    -11.184022    72A    -11.184007  
      73A    -11.183978    74A    -11.183946    75A    -11.183928  
      76A    -11.183909    77A    -11.181507    78A    -11.181504  
      79A    -11.181430    80A    -11.181404    81A    -11.181370  
      82A    -11.181339    83A    -11.180672    84A    -11.180444  
      85A    -11.180432    86A    -11.180331    87A    -11.180328  
      88A    -11.180282    89A    -11.180266    90A    -11.180241  
      91A    -11.179641    92A    -11.179023    93A    -11.178508  
      94A    -11.178218    95A    -11.176126    96A    -11.175973  
      97A    -11.175722    98A    -11.175621    99A    -11.175520  
     100A    -11.175133   101A     -7.610143   102A     -1.550822  
     103A     -1.448561   104A     -1.408449   105A     -1.408289  
     106A     -1.173519   107A     -1.163445   108A     -1.163428  
     109A     -1.147012   110A     -1.146985   111A     -1.136299  
     112A     -1.129450   113A     -1.123084   114A     -1.112628  
     115A     -1.112611   116A     -1.102707   117A     -1.102700  
     118A     -1.079962   119A     -1.079938   120A     -1.077406  
     121A     -1.074282   122A     -1.074274   123A     -1.054927  
     124A     -1.042703   125A     -1.041589   126A     -1.040483  
     127A     -1.040394   128A     -1.039640   129A     -1.015334  
     130A     -1.015319   131A     -1.007213   132A     -1.007197  
     133A     -0.993444   134A     -0.993415   135A     -0.992317  
     136A     -0.975537   137A     -0.975502   138A     -0.968237  
     139A     -0.968232   140A     -0.967639   141A     -0.950417  
     142A     -0.949908   143A     -0.949768   144A     -0.937058  
     145A     -0.933302   146A     -0.930508   147A     -0.926367  
     148A     -0.926320   149A     -0.921197   150A     -0.900642  
     151A     -0.900568   152A     -0.884390   153A     -0.884337  
     154A     -0.838035   155A     -0.836545   156A     -0.836504  
     157A     -0.830262   158A     -0.830218   159A     -0.819042  
     160A     -0.818951   161A     -0.815548   162A     -0.815491  
     163A     -0.815409   164A     -0.804073   165A     -0.801371  
     166A     -0.781268   167A     -0.777768   168A     -0.777614  
     169A     -0.770057   170A     -0.769293   171A     -0.762732  
     172A     -0.762717   173A     -0.760253   174A     -0.760214  
     175A     -0.732396   176A     -0.715415   177A     -0.715397  
     178A     -0.712653   179A     -0.712547   180A     -0.709664  
     181A     -0.709599   182A     -0.696057   183A     -0.695088  
     184A     -0.676718   185A     -0.667698   186A     -0.664039  
     187A     -0.663350   188A     -0.662907   189A     -0.652366  
     190A     -0.652343   191A     -0.652180   192A     -0.650280  
     193A     -0.650146   194A     -0.642778   195A     -0.628588  
     196A     -0.628566   197A     -0.623690   198A     -0.617669  
     199A     -0.617534   200A     -0.615476   201A     -0.615460  
     202A     -0.609875   203A     -0.609869   204A     -0.607647  
     205A     -0.593057   206A     -0.583402   207A     -0.579000  
     208A     -0.578971   209A     -0.577051   210A     -0.577002  
     211A     -0.576339   212A     -0.569005   213A     -0.569001  
     214A     -0.568997   215A     -0.568691   216A     -0.563504  
     217A     -0.563470   218A     -0.556414   219A     -0.546151  
     220A     -0.546078   221A     -0.544970   222A     -0.544946  
     223A     -0.536808   224A     -0.536791   225A     -0.535765  
     226A     -0.526296   227A     -0.525416   228A     -0.525406  
     229A     -0.524656   230A     -0.524639   231A     -0.523608  
     232A     -0.523519   233A     -0.522470   234A     -0.522387  
     235A     -0.518713   236A     -0.515900   237A     -0.515875  
     238A     -0.511638   239A     -0.509502   240A     -0.509489  
     241A     -0.502980   242A     -0.502965   243A     -0.502525  
     244A     -0.499427   245A     -0.496081   246A     -0.496071  
     247A     -0.492437   248A     -0.491963   249A     -0.491944  
     250A     -0.489381   251A     -0.485319   252A     -0.485296  
     253A     -0.481061   254A     -0.479986   255A     -0.479966  
     256A     -0.478794   257A     -0.478747   258A     -0.472486  
     259A     -0.463321   260A     -0.463307   261A     -0.458749  
     262A     -0.458220   263A     -0.458096   264A     -0.453296  
     265A     -0.452026   266A     -0.451931   267A     -0.447606  
     268A     -0.447200   269A     -0.445968   270A     -0.445852  
     271A     -0.445228   272A     -0.445220   273A     -0.440371  
     274A     -0.438552   275A     -0.438425   276A     -0.425607  
     277A     -0.424191   278A     -0.424127   279A     -0.418763  
     280A     -0.418704   281A     -0.411171   282A     -0.407560  
     283A     -0.407557   284A     -0.402521   285A     -0.394992  
     286A     -0.392855   287A     -0.392846   288A     -0.387976  
     289A     -0.386492   290A     -0.370929   291A     -0.370831  
     292A     -0.366108   293A     -0.366058   294A     -0.359419  
     295A     -0.354926   296A     -0.354573   297A     -0.334987  
     298A     -0.334946   299A     -0.315627   300A     -0.315583  
     301A     -0.312392   302A     -0.312343   303A     -0.289651  
     304A     -0.281227   305A     -0.281210   306A     -0.278964  
     307A     -0.264161   308A     -0.264157   309A     -0.260283  
     310A     -0.240136   311A     -0.239549   312A     -0.232412  
     313A     -0.228635   314A     -0.228537   315A     -0.224121  
     316A     -0.215265   317A     -0.190062   318A     -0.166397  
     319A     -0.165712   320A     -0.135823   321A     -0.135717  

    Virtual:                                                              

     322A      0.064321   323A      0.064486   324A      0.096122  
     325A      0.096137   326A      0.096876   327A      0.098452  
     328A      0.098475   329A      0.103798   330A      0.105879  
     331A      0.106280   332A      0.107468   333A      0.107528  
     334A      0.111802   335A      0.111808   336A      0.123164  
     337A      0.123166   338A      0.132084   339A      0.133196  
     340A      0.138823   341A      0.138884   342A      0.138974  
     343A      0.140473   344A      0.141753   345A      0.142528  
     346A      0.143228   347A      0.143943   348A      0.143960  
     349A      0.145858   350A      0.147582   351A      0.147718  
     352A      0.150575   353A      0.150822   354A      0.150844  
     355A      0.151086   356A      0.151263   357A      0.151293  
     358A      0.152728   359A      0.158722   360A      0.163609  
     361A      0.163624   362A      0.163693   363A      0.165042  
     364A      0.165070   365A      0.166099   366A      0.171536  
     367A      0.171673   368A      0.173742   369A      0.173839  
     370A      0.174163   371A      0.175145   372A      0.177795  
     373A      0.178105   374A      0.178237   375A      0.179782  
     376A      0.179833   377A      0.181282   378A      0.181324  
     379A      0.181909   380A      0.190011   381A      0.190017  
     382A      0.191570   383A      0.197856   384A      0.198090  
     385A      0.198394   386A      0.199938   387A      0.199970  
     388A      0.205015   389A      0.205157   390A      0.206110  
     391A      0.206374   392A      0.206609   393A      0.215788  
     394A      0.215962   395A      0.216086   396A      0.216676  
     397A      0.217593   398A      0.219704   399A      0.221683  
     400A      0.223057   401A      0.223172   402A      0.223502  
     403A      0.224851   404A      0.224876   405A      0.225467  
     406A      0.227655   407A      0.227698   408A      0.228990  
     409A      0.229186   410A      0.231677   411A      0.231734  
     412A      0.233938   413A      0.236085   414A      0.241609  
     415A      0.241627   416A      0.242154   417A      0.244019  
     418A      0.244537   419A      0.244612   420A      0.245312  
     421A      0.245340   422A      0.251671   423A      0.252742  
     424A      0.253775   425A      0.254197   426A      0.255140  
     427A      0.258456   428A      0.259108   429A      0.259309  
     430A      0.261483   431A      0.261666   432A      0.262470  
     433A      0.263589   434A      0.264439   435A      0.265270  
     436A      0.270075   437A      0.270717   438A      0.273174  
     439A      0.273554   440A      0.273672   441A      0.273696  
     442A      0.274775   443A      0.274805   444A      0.274913  
     445A      0.275786   446A      0.276835   447A      0.277290  
     448A      0.277584   449A      0.278003   450A      0.279675  
     451A      0.280086   452A      0.280746   453A      0.280885  
     454A      0.285905   455A      0.286505   456A      0.289955  
     457A      0.290329   458A      0.292651   459A      0.293394  
     460A      0.293435   461A      0.294345   462A      0.294772  
     463A      0.295118   464A      0.295982   465A      0.295999  
     466A      0.298274   467A      0.301165   468A      0.301174  
     469A      0.302136   470A      0.305277   471A      0.307009  
     472A      0.309586   473A      0.310844   474A      0.311494  
     475A      0.311715   476A      0.316447   477A      0.317379  
     478A      0.317401   479A      0.320413   480A      0.321051  
     481A      0.322259   482A      0.322389   483A      0.323572  
     484A      0.323753   485A      0.325089   486A      0.326056  
     487A      0.326177   488A      0.328477   489A      0.328925  
     490A      0.329904   491A      0.331615   492A      0.331689  
     493A      0.339177   494A      0.340196   495A      0.340326  
     496A      0.340381   497A      0.340438   498A      0.342401  
     499A      0.342609   500A      0.344426   501A      0.344521  
     502A      0.344571   503A      0.346019   504A      0.347403  
     505A      0.347548   506A      0.349086   507A      0.350129  
     508A      0.351677   509A      0.354502   510A      0.354669  
     511A      0.360853   512A      0.360915   513A      0.361503  
     514A      0.362297   515A      0.362800   516A      0.367692  
     517A      0.367759   518A      0.368140   519A      0.368273  
     520A      0.368695   521A      0.370132   522A      0.371654  
     523A      0.371785   524A      0.373742   525A      0.374071  
     526A      0.374999   527A      0.375268   528A      0.376283  
     529A      0.376305   530A      0.376604   531A      0.379170  
     532A      0.379812   533A      0.379909   534A      0.380196  
     535A      0.383004   536A      0.383535   537A      0.386128  
     538A      0.386258   539A      0.388187   540A      0.388415  
     541A      0.390599   542A      0.390896   543A      0.391133  
     544A      0.391841   545A      0.392800   546A      0.394382  
     547A      0.394514   548A      0.396452   549A      0.397833  
     550A      0.399043   551A      0.399220   552A      0.399509  
     553A      0.399567   554A      0.403130   555A      0.404373  
     556A      0.404395   557A      0.405487   558A      0.408249  
     559A      0.409405   560A      0.409525   561A      0.409710  
     562A      0.413119   563A      0.417149   564A      0.417551  
     565A      0.417831   566A      0.419407   567A      0.423734  
     568A      0.424900   569A      0.424977   570A      0.425486  
     571A      0.425928   572A      0.427187   573A      0.427585  
     574A      0.430881   575A      0.432947   576A      0.433137  
     577A      0.435855   578A      0.437309   579A      0.437436  
     580A      0.438137   581A      0.438732   582A      0.439580  
     583A      0.440926   584A      0.441020   585A      0.445760  
     586A      0.445775   587A      0.446201   588A      0.447290  
     589A      0.448836   590A      0.451104   591A      0.451137  
     592A      0.453092   593A      0.453490   594A      0.456373  
     595A      0.458023   596A      0.458484   597A      0.458986  
     598A      0.459943   599A      0.460351   600A      0.462414  
     601A      0.462575   602A      0.462912   603A      0.464126  
     604A      0.465449   605A      0.465502   606A      0.466600  
     607A      0.466672   608A      0.468208   609A      0.468710  
     610A      0.468736   611A      0.470555   612A      0.470920  
     613A      0.471712   614A      0.471968   615A      0.472709  
     616A      0.473105   617A      0.474339   618A      0.475907  
     619A      0.476940   620A      0.476952   621A      0.478397  
     622A      0.478821   623A      0.478978   624A      0.479169  
     625A      0.479606   626A      0.481758   627A      0.482490  
     628A      0.482567   629A      0.482645   630A      0.485223  
     631A      0.486503   632A      0.487361   633A      0.487907  
     634A      0.488760   635A      0.488928   636A      0.492526  
     637A      0.494291   638A      0.494441   639A      0.495959  
     640A      0.496410   641A      0.500287   642A      0.500325  
     643A      0.502422   644A      0.502464   645A      0.503252  
     646A      0.503342   647A      0.505779   648A      0.505981  
     649A      0.506782   650A      0.506864   651A      0.506911  
     652A      0.506957   653A      0.507019   654A      0.510047  
     655A      0.510829   656A      0.512103   657A      0.513562  
     658A      0.513723   659A      0.517360   660A      0.519104  
     661A      0.519314   662A      0.520019   663A      0.520706  
     664A      0.520975   665A      0.521700   666A      0.522560  
     667A      0.523205   668A      0.524196   669A      0.524577  
     670A      0.525121   671A      0.527034   672A      0.527404  
     673A      0.528494   674A      0.528667   675A      0.530038  
     676A      0.530282   677A      0.533472   678A      0.534082  
     679A      0.535146   680A      0.536941   681A      0.538015  
     682A      0.538944   683A      0.540376   684A      0.541355  
     685A      0.542380   686A      0.542475   687A      0.543566  
     688A      0.545020   689A      0.545995   690A      0.546446  
     691A      0.549547   692A      0.549621   693A      0.550266  
     694A      0.552634   695A      0.552717   696A      0.552868  
     697A      0.554663   698A      0.554675   699A      0.557297  
     700A      0.557445   701A      0.559302   702A      0.560168  
     703A      0.560518   704A      0.563603   705A      0.563832  
     706A      0.564302   707A      0.565832   708A      0.566083  
     709A      0.567193   710A      0.568903   711A      0.569460  
     712A      0.569529   713A      0.570185   714A      0.571565  
     715A      0.573467   716A      0.575377   717A      0.576540  
     718A      0.577389   719A      0.578541   720A      0.579823  
     721A      0.581869   722A      0.582284   723A      0.583936  
     724A      0.585636   725A      0.586174   726A      0.586522  
     727A      0.587126   728A      0.587660   729A      0.590652  
     730A      0.593586   731A      0.593607   732A      0.594305  
     733A      0.597387   734A      0.599594   735A      0.601236  
     736A      0.601490   737A      0.602179   738A      0.605232  
     739A      0.605300   740A      0.610318   741A      0.611494  
     742A      0.616374   743A      0.617461   744A      0.618178  
     745A      0.618210   746A      0.619994   747A      0.626529  
     748A      0.627440   749A      0.628227   750A      0.628459  
     751A      0.629313   752A      0.631745   753A      0.632442  
     754A      0.634029   755A      0.634274   756A      0.634613  
     757A      0.635374   758A      0.637525   759A      0.637721  
     760A      0.638656   761A      0.639550   762A      0.641555  
     763A      0.641789   764A      0.643434   765A      0.646097  
     766A      0.649586   767A      0.650728   768A      0.651642  
     769A      0.653332   770A      0.654233   771A      0.655477  
     772A      0.659083   773A      0.660529   774A      0.661326  
     775A      0.665536   776A      0.668979   777A      0.670317  
     778A      0.671398   779A      0.672551   780A      0.674689  
     781A      0.674914   782A      0.676051   783A      0.676395  
     784A      0.678617   785A      0.680051   786A      0.680361  
     787A      0.681479   788A      0.683332   789A      0.688388  
     790A      0.688779   791A      0.690054   792A      0.696386  
     793A      0.698490   794A      0.698761   795A      0.700055  
     796A      0.703795   797A      0.704513   798A      0.705435  
     799A      0.713077   800A      0.714874   801A      0.715428  
     802A      0.716535   803A      0.718175   804A      0.718615  
     805A      0.730057   806A      0.730648   807A      0.730681  
     808A      0.734139   809A      0.734212   810A      0.737516  
     811A      0.738005   812A      0.739553   813A      0.745769  
     814A      0.746278   815A      0.751077   816A      0.752604  
     817A      0.755442   818A      0.755540   819A      0.760976  
     820A      0.761033   821A      0.762272   822A      0.762935  
     823A      0.763108   824A      0.767658   825A      0.769014  
     826A      0.775881   827A      0.776299   828A      0.776959  
     829A      0.784217   830A      0.784837   831A      0.788097  
     832A      0.794889   833A      0.795139   834A      0.798927  
     835A      0.800484   836A      0.803858   837A      0.804328  
     838A      0.808386   839A      0.810296   840A      0.812359  
     841A      0.814353   842A      0.818060   843A      0.819990  
     844A      0.824911   845A      0.825825   846A      0.826861  
     847A      0.835878   848A      0.838514   849A      0.839700  
     850A      0.846962   851A      0.850126   852A      0.858070  
     853A      0.859261   854A      0.859541   855A      0.863833  
     856A      0.866274   857A      0.867214   858A      0.868601  
     859A      0.869981   860A      0.872836   861A      0.873809  
     862A      0.874847   863A      0.876651   864A      0.877851  
     865A      0.883455   866A      0.883945   867A      0.884490  
     868A      0.885098   869A      0.885861   870A      0.887505  
     871A      0.888117   872A      0.889038   873A      0.889829  
     874A      0.896858   875A      0.897217   876A      0.898788  
     877A      0.909696   878A      0.909815   879A      0.912256  
     880A      0.912723   881A      0.914878   882A      0.915816  
     883A      0.915990   884A      0.918973   885A      0.921070  
     886A      0.922075   887A      0.923661   888A      0.924908  
     889A      0.926095   890A      0.933634   891A      0.933829  
     892A      0.935062   893A      0.935217   894A      0.937713  
     895A      0.938309   896A      0.941497   897A      0.942050  
     898A      0.942403   899A      0.946353   900A      0.946582  
     901A      0.951865   902A      0.953330   903A      0.953999  
     904A      0.955303   905A      0.956286   906A      0.956482  
     907A      0.957255   908A      0.958505   909A      0.959142  
     910A      0.964324   911A      0.965692   912A      0.968723  
     913A      0.968772   914A      0.974327   915A      0.974637  
     916A      0.977935   917A      0.978304   918A      0.979292  
     919A      0.981244   920A      0.983323   921A      0.984538  
     922A      0.986023   923A      0.987291   924A      0.988455  
     925A      0.989541   926A      0.989857   927A      0.990812  
     928A      0.994021   929A      0.994650   930A      0.996797  
     931A      0.997177   932A      0.998781   933A      0.999669  
     934A      1.003938   935A      1.004217   936A      1.004485  
     937A      1.012332   938A      1.012779   939A      1.013433  
     940A      1.014411   941A      1.016095   942A      1.016225  
     943A      1.018590   944A      1.019704   945A      1.020647  
     946A      1.020900   947A      1.022335   948A      1.022593  
     949A      1.023676   950A      1.023975   951A      1.024995  
     952A      1.029373   953A      1.030194   954A      1.030808  
     955A      1.032889   956A      1.033364   957A      1.038435  
     958A      1.040283   959A      1.044225   960A      1.045568  
     961A      1.047925   962A      1.055774   963A      1.055903  
     964A      1.060790   965A      1.061757   966A      1.062421  
     967A      1.064395   968A      1.064959   969A      1.066898  
     970A      1.067451   971A      1.073627   972A      1.073901  
     973A      1.074083   974A      1.074355   975A      1.075749  
     976A      1.076200   977A      1.081332   978A      1.084138  
     979A      1.084404   980A      1.084750   981A      1.086103  
     982A      1.087317   983A      1.091164   984A      1.094832  
     985A      1.095876   986A      1.096181   987A      1.099022  
     988A      1.099804   989A      1.104319   990A      1.108991  
     991A      1.109341   992A      1.115659   993A      1.115725  
     994A      1.116905   995A      1.118114   996A      1.118354  
     997A      1.119136   998A      1.122007   999A      1.122343  
    1000A      1.122482  1001A      1.124667  1002A      1.124806  
    1003A      1.124909  1004A      1.125843  1005A      1.128047  
    1006A      1.131685  1007A      1.132009  1008A      1.132831  
    1009A      1.133568  1010A      1.133737  1011A      1.134824  
    1012A      1.136042  1013A      1.138723  1014A      1.140429  
    1015A      1.140522  1016A      1.141420  1017A      1.141873  
    1018A      1.143376  1019A      1.143924  1020A      1.144091  
    1021A      1.146804  1022A      1.147508  1023A      1.148310  
    1024A      1.148376  1025A      1.149139  1026A      1.150041  
    1027A      1.151056  1028A      1.151286  1029A      1.152221  
    1030A      1.152327  1031A      1.152457  1032A      1.153073  
    1033A      1.155329  1034A      1.155830  1035A      1.156243  
    1036A      1.157207  1037A      1.157305  1038A      1.159664  
    1039A      1.160159  1040A      1.160611  1041A      1.161037  
    1042A      1.163765  1043A      1.165803  1044A      1.167107  
    1045A      1.171396  1046A      1.173121  1047A      1.175879  
    1048A      1.176289  1049A      1.176518  1050A      1.180104  
    1051A      1.180421  1052A      1.181441  1053A      1.181631  
    1054A      1.182007  1055A      1.186800  1056A      1.186997  
    1057A      1.191737  1058A      1.192728  1059A      1.193351  
    1060A      1.194911  1061A      1.195351  1062A      1.197368  
    1063A      1.199003  1064A      1.199095  1065A      1.203200  
    1066A      1.206626  1067A      1.206747  1068A      1.209105  
    1069A      1.211620  1070A      1.212085  1071A      1.213420  
    1072A      1.214351  1073A      1.217876  1074A      1.220040  
    1075A      1.222411  1076A      1.223468  1077A      1.224019  
    1078A      1.225790  1079A      1.228103  1080A      1.230003  
    1081A      1.230608  1082A      1.230776  1083A      1.231714  
    1084A      1.236466  1085A      1.237981  1086A      1.238430  
    1087A      1.241675  1088A      1.242162  1089A      1.243815  
    1090A      1.244686  1091A      1.245490  1092A      1.245940  
    1093A      1.248265  1094A      1.253343  1095A      1.254151  
    1096A      1.254890  1097A      1.256234  1098A      1.259367  
    1099A      1.260833  1100A      1.260969  1101A      1.266859  
    1102A      1.268034  1103A      1.271203  1104A      1.276859  
    1105A      1.277540  1106A      1.278407  1107A      1.279904  
    1108A      1.280783  1109A      1.282360  1110A      1.283121  
    1111A      1.283416  1112A      1.285277  1113A      1.289720  
    1114A      1.290661  1115A      1.291074  1116A      1.291593  
    1117A      1.293685  1118A      1.297397  1119A      1.304502  
    1120A      1.305702  1121A      1.316382  1122A      1.319413  
    1123A      1.319508  1124A      1.322454  1125A      1.323134  
    1126A      1.323187  1127A      1.329044  1128A      1.331613  
    1129A      1.332099  1130A      1.336880  1131A      1.337542  
    1132A      1.337794  1133A      1.341564  1134A      1.343292  
    1135A      1.343525  1136A      1.350310  1137A      1.350538  
    1138A      1.355271  1139A      1.356238  1140A      1.356434  
    1141A      1.361627  1142A      1.363197  1143A      1.363348  
    1144A      1.365071  1145A      1.366168  1146A      1.370306  
    1147A      1.371774  1148A      1.373985  1149A      1.379142  
    1150A      1.379421  1151A      1.383598  1152A      1.384778  
    1153A      1.385106  1154A      1.387736  1155A      1.388663  
    1156A      1.388831  1157A      1.390235  1158A      1.392192  
    1159A      1.397515  1160A      1.398287  1161A      1.398441  
    1162A      1.399165  1163A      1.399274  1164A      1.400767  
    1165A      1.403687  1166A      1.404280  1167A      1.405879  
    1168A      1.407377  1169A      1.410993  1170A      1.411248  
    1171A      1.416619  1172A      1.422796  1173A      1.424511  
    1174A      1.427872  1175A      1.427946  1176A      1.430981  
    1177A      1.431783  1178A      1.432113  1179A      1.432216  
    1180A      1.433405  1181A      1.434656  1182A      1.434835  
    1183A      1.435713  1184A      1.443970  1185A      1.446031  
    1186A      1.450655  1187A      1.452392  1188A      1.453028  
    1189A      1.457951  1190A      1.458522  1191A      1.458929  
    1192A      1.462183  1193A      1.462219  1194A      1.473461  
    1195A      1.476466  1196A      1.477096  1197A      1.477543  
    1198A      1.479710  1199A      1.479889  1200A      1.480126  
    1201A      1.480629  1202A      1.480772  1203A      1.481422  
    1204A      1.487601  1205A      1.492164  1206A      1.492283  
    1207A      1.492906  1208A      1.493057  1209A      1.499745  
    1210A      1.500466  1211A      1.503018  1212A      1.503516  
    1213A      1.503999  1214A      1.504324  1215A      1.504709  
    1216A      1.510415  1217A      1.510471  1218A      1.511929  
    1219A      1.513029  1220A      1.515255  1221A      1.518842  
    1222A      1.519994  1223A      1.522436  1224A      1.528787  
    1225A      1.530192  1226A      1.530392  1227A      1.532387  
    1228A      1.537989  1229A      1.539515  1230A      1.539974  
    1231A      1.541537  1232A      1.544238  1233A      1.545410  
    1234A      1.546202  1235A      1.549322  1236A      1.549990  
    1237A      1.556819  1238A      1.557475  1239A      1.558321  
    1240A      1.559050  1241A      1.564936  1242A      1.569563  
    1243A      1.569721  1244A      1.575411  1245A      1.580569  
    1246A      1.582898  1247A      1.583448  1248A      1.592355  
    1249A      1.592593  1250A      1.612797  1251A      1.613861  
    1252A      1.614066  1253A      1.621295  1254A      1.623776  
    1255A      1.637851  1256A      1.638163  1257A      1.659587  
    1258A      1.661289  1259A      1.665623  1260A      1.666086  
    1261A      1.672206  1262A      1.675456  1263A      1.681234  
    1264A      1.681649  1265A      1.683474  1266A      1.684108  
    1267A      1.685740  1268A      1.686425  1269A      1.687391  
    1270A      1.689894  1271A      1.690116  1272A      1.690673  
    1273A      1.692005  1274A      1.693381  1275A      1.694562  
    1276A      1.698510  1277A      1.699133  1278A      1.701277  
    1279A      1.701871  1280A      1.702876  1281A      1.706057  
    1282A      1.707773  1283A      1.708268  1284A      1.711198  
    1285A      1.711529  1286A      1.712035  1287A      1.712264  
    1288A      1.712828  1289A      1.713990  1290A      1.715055  
    1291A      1.717124  1292A      1.718174  1293A      1.718975  
    1294A      1.720102  1295A      1.725047  1296A      1.725956  
    1297A      1.727076  1298A      1.727365  1299A      1.727517  
    1300A      1.729855  1301A      1.739260  1302A      1.739368  
    1303A      1.741517  1304A      1.743860  1305A      1.744011  
    1306A      1.744379  1307A      1.744530  1308A      1.747300  
    1309A      1.748836  1310A      1.752504  1311A      1.752637  
    1312A      1.756127  1313A      1.757247  1314A      1.759901  
    1315A      1.760207  1316A      1.761814  1317A      1.765194  
    1318A      1.768577  1319A      1.769687  1320A      1.773238  
    1321A      1.773367  1322A      1.779207  1323A      1.779454  
    1324A      1.784292  1325A      1.785348  1326A      1.785525  
    1327A      1.787605  1328A      1.789327  1329A      1.790578  
    1330A      1.796486  1331A      1.796681  1332A      1.798886  
    1333A      1.798982  1334A      1.799925  1335A      1.809694  
    1336A      1.817856  1337A      1.818734  1338A      1.822455  
    1339A      1.822611  1340A      1.828605  1341A      1.829152  
    1342A      1.835439  1343A      1.836407  1344A      1.838600  
    1345A      1.841052  1346A      1.842336  1347A      1.851441  
    1348A      1.856293  1349A      1.856687  1350A      1.858808  
    1351A      1.859474  1352A      1.872736  1353A      1.873219  
    1354A      1.886481  1355A      1.892534  1356A      1.897409  
    1357A      1.897866  1358A      1.899615  1359A      1.901002  
    1360A      1.901647  1361A      1.902663  1362A      1.903921  
    1363A      1.904194  1364A      1.905587  1365A      1.909704  
    1366A      1.919118  1367A      1.920073  1368A      1.923775  
    1369A      1.924089  1370A      1.925012  1371A      1.925998  
    1372A      1.930676  1373A      1.933196  1374A      1.933984  
    1375A      1.934882  1376A      1.935595  1377A      1.938687  
    1378A      1.938965  1379A      1.939562  1380A      1.941039  
    1381A      1.943147  1382A      1.946008  1383A      1.946455  
    1384A      1.950011  1385A      1.950351  1386A      1.954684  
    1387A      1.955260  1388A      1.955429  1389A      1.956398  
    1390A      1.962984  1391A      1.964496  1392A      1.964596  
    1393A      1.965382  1394A      1.972548  1395A      1.972713  
    1396A      1.977958  1397A      1.978088  1398A      1.979652  
    1399A      1.986507  1400A      1.987188  1401A      1.989676  
    1402A      1.995288  1403A      1.995773  1404A      1.996843  
    1405A      1.999196  1406A      2.002802  1407A      2.002816  
    1408A      2.005477  1409A      2.005782  1410A      2.007022  
    1411A      2.010140  1412A      2.012674  1413A      2.014879  
    1414A      2.015346  1415A      2.016428  1416A      2.016985  
    1417A      2.017786  1418A      2.019882  1419A      2.025839  
    1420A      2.027618  1421A      2.029471  1422A      2.029722  
    1423A      2.031461  1424A      2.035201  1425A      2.036758  
    1426A      2.037158  1427A      2.037462  1428A      2.039558  
    1429A      2.040426  1430A      2.043386  1431A      2.046349  
    1432A      2.047110  1433A      2.055328  1434A      2.056649  
    1435A      2.059496  1436A      2.064167  1437A      2.066118  
    1438A      2.067088  1439A      2.067936  1440A      2.071079  
    1441A      2.071792  1442A      2.073776  1443A      2.075645  
    1444A      2.080415  1445A      2.086298  1446A      2.086722  
    1447A      2.089424  1448A      2.089986  1449A      2.091985  
    1450A      2.092814  1451A      2.093278  1452A      2.094096  
    1453A      2.095354  1454A      2.097252  1455A      2.100697  
    1456A      2.102363  1457A      2.103536  1458A      2.104776  
    1459A      2.107258  1460A      2.108599  1461A      2.109018  
    1462A      2.109493  1463A      2.112632  1464A      2.115780  
    1465A      2.123162  1466A      2.123289  1467A      2.125767  
    1468A      2.126846  1469A      2.130600  1470A      2.131436  
    1471A      2.131653  1472A      2.133090  1473A      2.135661  
    1474A      2.137165  1475A      2.138225  1476A      2.138411  
    1477A      2.143587  1478A      2.146853  1479A      2.147488  
    1480A      2.148314  1481A      2.151548  1482A      2.153234  
    1483A      2.154085  1484A      2.155003  1485A      2.155287  
    1486A      2.156000  1487A      2.158940  1488A      2.159508  
    1489A      2.159819  1490A      2.160540  1491A      2.160845  
    1492A      2.161570  1493A      2.162224  1494A      2.163059  
    1495A      2.165266  1496A      2.166325  1497A      2.168245  
    1498A      2.171260  1499A      2.171919  1500A      2.172088  
    1501A      2.173373  1502A      2.174999  1503A      2.180848  
    1504A      2.181550  1505A      2.182691  1506A      2.186040  
    1507A      2.187363  1508A      2.187588  1509A      2.188623  
    1510A      2.190454  1511A      2.190859  1512A      2.192979  
    1513A      2.193548  1514A      2.194376  1515A      2.195683  
    1516A      2.197845  1517A      2.198084  1518A      2.200379  
    1519A      2.201576  1520A      2.204010  1521A      2.204241  
    1522A      2.205088  1523A      2.210216  1524A      2.211866  
    1525A      2.214234  1526A      2.215470  1527A      2.215887  
    1528A      2.216374  1529A      2.219041  1530A      2.221365  
    1531A      2.221683  1532A      2.222514  1533A      2.230313  
    1534A      2.232872  1535A      2.233293  1536A      2.233816  
    1537A      2.235577  1538A      2.238688  1539A      2.239116  
    1540A      2.239783  1541A      2.240496  1542A      2.241420  
    1543A      2.242829  1544A      2.245839  1545A      2.249720  
    1546A      2.250931  1547A      2.254486  1548A      2.255911  
    1549A      2.256761  1550A      2.261987  1551A      2.262254  
    1552A      2.266656  1553A      2.268833  1554A      2.270424  
    1555A      2.272351  1556A      2.272948  1557A      2.273176  
    1558A      2.275974  1559A      2.276349  1560A      2.278737  
    1561A      2.278999  1562A      2.282555  1563A      2.283484  
    1564A      2.284312  1565A      2.288136  1566A      2.291517  
    1567A      2.292353  1568A      2.294440  1569A      2.296789  
    1570A      2.297152  1571A      2.298419  1572A      2.299166  
    1573A      2.300233  1574A      2.302118  1575A      2.302625  
    1576A      2.304062  1577A      2.310491  1578A      2.311055  
    1579A      2.315373  1580A      2.315466  1581A      2.318249  
    1582A      2.319505  1583A      2.319980  1584A      2.322996  
    1585A      2.326674  1586A      2.328837  1587A      2.332111  
    1588A      2.332966  1589A      2.336523  1590A      2.345135  
    1591A      2.345541  1592A      2.349393  1593A      2.351597  
    1594A      2.355815  1595A      2.356151  1596A      2.356832  
    1597A      2.364110  1598A      2.365240  1599A      2.367998  
    1600A      2.370978  1601A      2.373337  1602A      2.374252  
    1603A      2.380868  1604A      2.393891  1605A      2.395420  
    1606A      2.396853  1607A      2.397729  1608A      2.398158  
    1609A      2.399457  1610A      2.402219  1611A      2.403285  
    1612A      2.405957  1613A      2.407826  1614A      2.408367  
    1615A      2.408927  1616A      2.412441  1617A      2.414140  
    1618A      2.415093  1619A      2.415844  1620A      2.417301  
    1621A      2.417820  1622A      2.418317  1623A      2.422520  
    1624A      2.430229  1625A      2.430859  1626A      2.453915  
    1627A      2.459627  1628A      2.460238  1629A      2.464152  
    1630A      2.465752  1631A      2.473211  1632A      2.475641  
    1633A      2.478367  1634A      2.488042  1635A      2.490029  
    1636A      2.490925  1637A      2.493903  1638A      2.496906  
    1639A      2.497513  1640A      2.510295  1641A      2.518580  
    1642A      2.519123  1643A      2.526406  1644A      2.533829  
    1645A      2.536857  1646A      2.537932  1647A      2.539376  
    1648A      2.542025  1649A      2.542729  1650A      2.544261  
    1651A      2.560871  1652A      2.561538  1653A      2.572142  
    1654A      2.577051  1655A      2.577244  1656A      2.580056  
    1657A      2.587007  1658A      2.588286  1659A      2.599104  
    1660A      2.604071  1661A      2.611496  1662A      2.615782  
    1663A      2.616136  1664A      2.616617  1665A      2.617488  
    1666A      2.619546  1667A      2.621092  1668A      2.622674  
    1669A      2.628269  1670A      2.629102  1671A      2.636722  
    1672A      2.639681  1673A      2.644160  1674A      2.647229  
    1675A      2.651973  1676A      2.652110  1677A      2.656126  
    1678A      2.656185  1679A      2.656483  1680A      2.658899  
    1681A      2.659744  1682A      2.663858  1683A      2.664352  
    1684A      2.671503  1685A      2.676085  1686A      2.684357  
    1687A      2.685069  1688A      2.685332  1689A      2.686940  
    1690A      2.688052  1691A      2.690970  1692A      2.691651  
    1693A      2.704659  1694A      2.716375  1695A      2.717493  
    1696A      2.720093  1697A      2.720513  1698A      2.722255  
    1699A      2.722452  1700A      2.725678  1701A      2.726455  
    1702A      2.726856  1703A      2.731210  1704A      2.737433  
    1705A      2.738412  1706A      2.741162  1707A      2.742310  
    1708A      2.744592  1709A      2.746779  1710A      2.749233  
    1711A      2.749771  1712A      2.761560  1713A      2.762893  
    1714A      2.764387  1715A      2.764764  1716A      2.765729  
    1717A      2.768704  1718A      2.771431  1719A      2.773253  
    1720A      2.773714  1721A      2.783186  1722A      2.799232  
    1723A      2.799900  1724A      2.800812  1725A      2.801292  
    1726A      2.808919  1727A      2.810099  1728A      2.826423  
    1729A      2.841554  1730A      2.843127  1731A      2.843966  
    1732A      2.855731  1733A      2.862221  1734A      2.865246  
    1735A      2.873811  1736A      2.874414  1737A      2.876483  
    1738A      2.877573  1739A      2.884378  1740A      2.885327  
    1741A      2.891500  1742A      2.893383  1743A      2.894054  
    1744A      2.896598  1745A      2.897978  1746A      2.906070  
    1747A      2.913613  1748A      2.915715  1749A      2.917214  
    1750A      2.917994  1751A      2.918624  1752A      2.922539  
    1753A      2.931773  1754A      2.939635  1755A      2.939692  
    1756A      2.945622  1757A      2.946509  1758A      2.948031  
    1759A      2.972866  1760A      2.974386  1761A      2.987335  
    1762A      2.987548  1763A      2.995670  1764A      2.998239  
    1765A      2.999787  1766A      3.003384  1767A      3.003480  
    1768A      3.035298  1769A      3.036448  1770A      3.036828  
    1771A      3.046579  1772A      3.064759  1773A      3.065006  
    1774A      3.099905  1775A      3.100337  1776A      3.109625  
    1777A      3.112114  1778A      3.117959  1779A      3.118447  
    1780A      3.118820  1781A      3.131640  1782A      3.131877  
    1783A      3.133515  1784A      3.145381  1785A      3.173784  
    1786A      3.174896  1787A      3.179534  1788A      3.183898  
    1789A      3.184362  1790A      3.196450  1791A      3.202455  
    1792A      3.202590  1793A      3.211486  1794A      3.212835  
    1795A      3.216563  1796A      3.217084  1797A      3.221006  
    1798A      3.221968  1799A      3.222120  1800A      3.230033  
    1801A      3.235447  1802A      3.235719  1803A      3.241197  
    1804A      3.243238  1805A      3.255527  1806A      3.256760  
    1807A      3.264049  1808A      3.264347  1809A      3.280363  
    1810A      3.296033  1811A      3.319881  1812A      3.328489  
    1813A      3.331996  1814A      3.332352  1815A      3.335934  
    1816A      3.342933  1817A      3.344652  1818A      3.346668  
    1819A      3.347939  1820A      3.349185  1821A      3.375373  
    1822A      3.376313  1823A      3.392715  1824A      3.398162  
    1825A      3.414291  1826A      3.437819  1827A      3.438647  
    1828A      3.452227  1829A      3.483102  1830A      3.519820  
    1831A      3.523566  1832A      3.536492  1833A      3.537462  
    1834A      3.544712  1835A      3.545861  1836A      3.552304  
    1837A      3.555094  1838A      3.560731  1839A      3.566068  
    1840A      3.567505  1841A      3.584462  1842A      3.601425  
    1843A      3.619862  1844A      3.623482  1845A      3.655898  
    1846A      3.658118  1847A      3.666361  1848A      3.674074  
    1849A      3.693197  1850A      3.729089  1851A      3.735109  
    1852A      3.743213  1853A      3.746168  1854A      3.782023  
    1855A      3.830689  1856A      3.833407  1857A      3.841213  
    1858A      3.849513  1859A      3.853479  1860A      3.882181  
    1861A      3.915310  1862A      3.924928  1863A      3.947775  
    1864A      3.951265  1865A      3.992571  1866A      3.994853  
    1867A      4.022300  1868A      4.022705  1869A      4.027640  
    1870A      4.043201  1871A      4.049069  1872A      4.055748  
    1873A      4.099973  1874A      4.105009  1875A      4.110281  
    1876A      4.123826  1877A      4.150885  1878A      4.162848  
    1879A      4.176487  1880A      4.179609  1881A      4.187457  
    1882A      4.198429  1883A      4.236118  1884A      4.250866  
    1885A      4.281350  1886A      4.358786  1887A      4.413262  
    1888A      4.427142  1889A      4.468313  1890A      4.480844  
    1891A      4.513582  1892A      4.558467  1893A      4.589184  
    1894A      4.623274  1895A      4.635446  1896A      4.650445  
    1897A      4.714729  1898A      4.725143  1899A      4.726977  

    Final Occupation by Irrep:
              A 
    DOCC [   321 ]
    NA   [   321 ]
    NB   [   321 ]

  @DF-RHF Final Energy: -4072.86114206709499

   => Energetics <=

    Nuclear Repulsion Energy =          17922.7040430573761114
    One-Electron Energy =              -41334.9654773764996207
    Two-Electron Energy =               19339.4002922520267020
    Total Energy =                      -4072.8611420670968073

Computation Completed


Properties will be evaluated at   0.000000,   0.000000,   0.000000 [a0]

Properties computed using the SCF density matrix


 Multipole Moments:

 ------------------------------------------------------------------------------------
     Multipole            Electronic (a.u.)      Nuclear  (a.u.)        Total (a.u.)
 ------------------------------------------------------------------------------------

 L = 1.  Multiply by 2.5417464519 to convert [e a0] to [Debye]
 Dipole X            :          0.0004695           -0.0000548            0.0004148
 Dipole Y            :         -0.0000416           -0.0002464           -0.0002880
 Dipole Z            :        -13.2677961           16.0676756            2.7998795
 Magnitude           :                                                    2.7998796

 ------------------------------------------------------------------------------------

*** tstop() called on n2cn0618 at Wed Feb  7 20:47:57 2024
Module time:
	user time   =   23154.54 seconds =     385.91 minutes
	system time =    1623.30 seconds =      27.05 minutes
	total time  =       3239 seconds =      53.98 minutes
Total time:
	user time   =   23154.54 seconds =     385.91 minutes
	system time =    1623.30 seconds =      27.05 minutes
	total time  =       3239 seconds =      53.98 minutes

  //>>>>>>>>>>>>>>>>>>>>>>>>>>>>>>>>>>>//
  //            Monomer A HF           //
  //<<<<<<<<<<<<<<<<<<<<<<<<<<<<<<<<<<<//

   => Libint2 <=

    Primary   basis highest AM E, G, H:  5, 4, 3
    Auxiliary basis highest AM E, G, H:  6, 5, 4
    Onebody   basis highest AM E, G, H:  6, 5, 4
    Solid Harmonics ordering:            gaussian

*** tstart() called on n2cn0618
*** at Wed Feb  7 20:47:57 2024

   => Loading Basis Set <=

    Name: JUN-CC-PVDZ
    Role: ORBITAL
    Keyword: BASIS
    atoms 1                                                   entry B          line   130 file /opt/software/pc2/EB-SW/software/PSI4/1.9-foss-2022a/share/psi4/basis/jun-cc-pvdz.gbs 
    atoms 2-5                                                 entry F          line   266 file /opt/software/pc2/EB-SW/software/PSI4/1.9-foss-2022a/share/psi4/basis/jun-cc-pvdz.gbs 
    atoms 6-23, 30-42, 45-59, 62-78, 81-93, 98-108, 111-119   entry C          line   164 file /opt/software/pc2/EB-SW/software/PSI4/1.9-foss-2022a/share/psi4/basis/jun-cc-pvdz.gbs 
    atoms 24-29, 43-44, 60-61, 79-80, 94-97, 109-110, 120-125 entry H          line    36 file /opt/software/pc2/EB-SW/software/PSI4/1.9-foss-2022a/share/psi4/basis/jun-cc-pvdz.gbs 


         ---------------------------------------------------------
                                   SCF
               by Justin Turney, Rob Parrish, Andy Simmonett
                          and Daniel G. A. Smith
                              RHF Reference
                       16 Threads,  76293 MiB Core
         ---------------------------------------------------------

  ==> Geometry <==

    Molecular point group: c1
    Full point group: C1

    Geometry (in Angstrom), charge = -1, multiplicity = 1:

       Center              X                  Y                   Z               Mass       
    ------------   -----------------  -----------------  -----------------  -----------------
         B           -0.000201921932     0.000288800891    -2.514005229567    11.009305360000
         F           -0.000004162732     0.000014527991    -1.101220229567    18.998403162730
         F            1.147855837268     0.675795727991    -2.985146229567    18.998403162730
         F            0.011913897268    -1.331996472009    -2.984944229567    18.998403162730
         F           -1.159670162732     0.656088027991    -2.984865229567    18.998403162730
      Gh(C)          -3.668445426752     7.803766698073     0.187860811768    12.000000000000
      Gh(C)          -4.847602882078     7.131256359331     0.185494236836    12.000000000000
      Gh(C)          -4.894963461907     5.696344931522     0.184921325738    12.000000000000
      Gh(C)          -3.653744841505     4.980744868950     0.192581767467    12.000000000000
      Gh(C)          -2.409429284226     7.113995564665     0.188055154029    12.000000000000
      Gh(C)          -2.425481506836     5.681136478894     0.181050265159    12.000000000000
      Gh(C)          -1.194748179167     7.786158722300     0.189527334571    12.000000000000
      Gh(C)           0.037954866205     7.099436173748     0.187356630266    12.000000000000
      Gh(C)           0.030328424687     5.669504087695     0.181873245350    12.000000000000
      Gh(C)          -1.200988670637     4.969284875906     0.190842979283    12.000000000000
      Gh(C)           1.277953663083     7.772873971185     0.188732478826    12.000000000000
      Gh(C)           2.485353921992     7.087711413228     0.186457990921    12.000000000000
      Gh(C)           2.486124522185     5.654785338231     0.179520241934    12.000000000000
      Gh(C)           1.254078756912     4.956092641655     0.191148183522    12.000000000000
      Gh(C)           3.751710428674     7.763926678971     0.186584842302    12.000000000000
      Gh(C)           4.923561893453     7.078795304981     0.184528361594    12.000000000000
      Gh(C)           4.955603108594     5.643461991360     0.184367948787    12.000000000000
      Gh(C)           3.706797371473     4.941224736324     0.189459508957    12.000000000000
      Gh(H)          -3.658525300490     8.890841947126     0.189545800019     1.007825032230
      Gh(H)          -1.189217492488     8.874135615351     0.193499211012     1.007825032230
      Gh(H)           1.284290076155     8.860847963479     0.192891302967     1.007825032230
      Gh(H)           3.753537924068     8.851049806963     0.188107366618     1.007825032230
      Gh(H)           5.869954540475     7.613809362646     0.183602994552     1.007825032230
      Gh(H)          -5.788235870234     7.676316740925     0.183934389480     1.007825032230
      Gh(C)          -6.091978121428     4.993274541634     0.183049085247    12.000000000000
[...]
    1519A      2.160154  1520A      2.160624  1521A      2.161417  
    1522A      2.164979  1523A      2.165661  1524A      2.166818  
    1525A      2.167194  1526A      2.168198  1527A      2.171534  
    1528A      2.173124  1529A      2.174885  1530A      2.180357  
    1531A      2.180728  1532A      2.183095  1533A      2.183891  
    1534A      2.183936  1535A      2.191381  1536A      2.193295  
    1537A      2.193389  1538A      2.196118  1539A      2.200413  
    1540A      2.201176  1541A      2.201693  1542A      2.203297  
    1543A      2.203670  1544A      2.205572  1545A      2.205713  
    1546A      2.210867  1547A      2.211416  1548A      2.216756  
    1549A      2.220331  1550A      2.221681  1551A      2.222911  
    1552A      2.227830  1553A      2.229019  1554A      2.229322  
    1555A      2.230922  1556A      2.231370  1557A      2.231925  
    1558A      2.232719  1559A      2.234479  1560A      2.235494  
    1561A      2.236337  1562A      2.240145  1563A      2.240233  
    1564A      2.243679  1565A      2.248192  1566A      2.248275  
    1567A      2.255845  1568A      2.264166  1569A      2.267276  
    1570A      2.268340  1571A      2.269089  1572A      2.275080  
    1573A      2.277802  1574A      2.280787  1575A      2.280986  
    1576A      2.283133  1577A      2.285989  1578A      2.289417  
    1579A      2.293714  1580A      2.294114  1581A      2.296971  
    1582A      2.299601  1583A      2.307513  1584A      2.308032  
    1585A      2.313732  1586A      2.315335  1587A      2.319207  
    1588A      2.325306  1589A      2.326318  1590A      2.327731  
    1591A      2.329806  1592A      2.332852  1593A      2.335173  
    1594A      2.335660  1595A      2.336570  1596A      2.336821  
    1597A      2.338317  1598A      2.341345  1599A      2.342241  
    1600A      2.342956  1601A      2.344046  1602A      2.346058  
    1603A      2.346616  1604A      2.346674  1605A      2.352194  
    1606A      2.355368  1607A      2.355998  1608A      2.377671  
    1609A      2.384562  1610A      2.388371  1611A      2.389808  
    1612A      2.393512  1613A      2.396806  1614A      2.403799  
    1615A      2.406591  1616A      2.417013  1617A      2.418978  
    1618A      2.421026  1619A      2.423199  1620A      2.433423  
    1621A      2.438984  1622A      2.439811  1623A      2.452331  
    1624A      2.453271  1625A      2.464588  1626A      2.465470  
    1627A      2.468529  1628A      2.468781  1629A      2.472023  
    1630A      2.472240  1631A      2.489192  1632A      2.490888  
    1633A      2.491628  1634A      2.491951  1635A      2.501366  
    1636A      2.507791  1637A      2.508234  1638A      2.512128  
    1639A      2.516837  1640A      2.519437  1641A      2.539464  
    1642A      2.540654  1643A      2.544870  1644A      2.545122  
    1645A      2.545728  1646A      2.546905  1647A      2.550825  
    1648A      2.551211  1649A      2.555955  1650A      2.556154  
    1651A      2.562216  1652A      2.564452  1653A      2.566272  
    1654A      2.571562  1655A      2.573168  1656A      2.583361  
    1657A      2.585099  1658A      2.586132  1659A      2.586337  
    1660A      2.589272  1661A      2.589353  1662A      2.590978  
    1663A      2.593324  1664A      2.593888  1665A      2.600241  
    1666A      2.603705  1667A      2.604844  1668A      2.614645  
    1669A      2.614891  1670A      2.615290  1671A      2.615531  
    1672A      2.620096  1673A      2.620727  1674A      2.633015  
    1675A      2.644530  1676A      2.646010  1677A      2.650098  
    1678A      2.650402  1679A      2.650723  1680A      2.654067  
    1681A      2.654827  1682A      2.655838  1683A      2.657785  
    1684A      2.658060  1685A      2.666274  1686A      2.668880  
    1687A      2.673997  1688A      2.674570  1689A      2.676798  
    1690A      2.680961  1691A      2.681170  1692A      2.683652  
    1693A      2.689080  1694A      2.690216  1695A      2.691802  
    1696A      2.692252  1697A      2.693799  1698A      2.697473  
    1699A      2.698672  1700A      2.701694  1701A      2.703624  
    1702A      2.710670  1703A      2.728262  1704A      2.731023  
    1705A      2.732356  1706A      2.732722  1707A      2.734735  
    1708A      2.735017  1709A      2.761439  1710A      2.765456  
    1711A      2.767102  1712A      2.778412  1713A      2.791605  
    1714A      2.794584  1715A      2.801952  1716A      2.802024  
    1717A      2.802294  1718A      2.803915  1719A      2.813965  
    1720A      2.814226  1721A      2.815037  1722A      2.817257  
    1723A      2.817520  1724A      2.819942  1725A      2.824230  
    1726A      2.825684  1727A      2.838849  1728A      2.839726  
    1729A      2.841203  1730A      2.845082  1731A      2.845334  
    1732A      2.848860  1733A      2.856402  1734A      2.865779  
    1735A      2.865806  1736A      2.874174  1737A      2.875156  
    1738A      2.875691  1739A      2.896170  1740A      2.897061  
    1741A      2.918131  1742A      2.919016  1743A      2.919547  
    1744A      2.920520  1745A      2.921037  1746A      2.925426  
    1747A      2.927929  1748A      2.938066  1749A      2.938271  
    1750A      2.964214  1751A      2.967354  1752A      2.967740  
    1753A      2.976508  1754A      2.983226  1755A      2.993957  
    1756A      2.994140  1757A      3.030727  1758A      3.031086  
    1759A      3.041009  1760A      3.043640  1761A      3.048899  
    1762A      3.049362  1763A      3.049784  1764A      3.058092  
    1765A      3.058297  1766A      3.069085  1767A      3.073264  
    1768A      3.111917  1769A      3.114662  1770A      3.115236  
    1771A      3.125502  1772A      3.130796  1773A      3.131123  
    1774A      3.143324  1775A      3.144147  1776A      3.147670  
    1777A      3.148004  1778A      3.152002  1779A      3.152257  
    1780A      3.152944  1781A      3.153061  1782A      3.154707  
    1783A      3.162225  1784A      3.168289  1785A      3.173341  
    1786A      3.183374  1787A      3.183958  1788A      3.184354  
    1789A      3.194045  1790A      3.194802  1791A      3.221355  
    1792A      3.259878  1793A      3.261295  1794A      3.262929  
    1795A      3.263220  1796A      3.265636  1797A      3.267510  
    1798A      3.272778  1799A      3.275365  1800A      3.276616  
    1801A      3.277272  1802A      3.301013  1803A      3.302518  
    1804A      3.319007  1805A      3.325609  1806A      3.362870  
    1807A      3.363748  1808A      3.400726  1809A      3.419462  
    1810A      3.443512  1811A      3.444872  1812A      3.459032  
    1813A      3.460060  1814A      3.462730  1815A      3.468246  
    1816A      3.476732  1817A      3.479134  1818A      3.482010  
    1819A      3.489632  1820A      3.491651  1821A      3.509762  
    1822A      3.532297  1823A      3.546014  1824A      3.563987  
    1825A      3.582335  1826A      3.584604  1827A      3.592458  
    1828A      3.600887  1829A      3.656604  1830A      3.660859  
    1831A      3.670139  1832A      3.672817  1833A      3.707538  
    1834A      3.760076  1835A      3.762730  1836A      3.770597  
    1837A      3.778718  1838A      3.781876  1839A      3.808263  
    1840A      3.844369  1841A      3.853902  1842A      3.875267  
    1843A      3.878838  1844A      3.922985  1845A      3.923755  
    1846A      3.950034  1847A      3.950548  1848A      3.968010  
    1849A      3.970564  1850A      3.973436  1851A      3.977973  
    1852A      3.995107  1853A      4.024886  1854A      4.027724  
    1855A      4.086652  1856A      4.272723  1857A      4.428292  
    1858A      4.458296  1859A      4.476708  1860A      4.487224  
    1861A      4.569393  1862A      4.814991  1863A      5.763121  
    1864A      5.769978  1865A      5.780871  1866A      5.781189  
    1867A      5.802142  1868A      5.802869  1869A      5.857483  
    1870A      5.861694  1871A      5.873881  1872A      6.037185  
    1873A      6.057164  1874A      6.065867  1875A      6.088957  
    1876A      6.101174  1877A      6.215911  1878A      6.342668  
    1879A      6.344312  1880A      6.393828  1881A      6.405528  
    1882A      6.406089  1883A      7.362435  1884A      7.380512  
    1885A      7.390723  1886A      7.477056  1887A      7.482026  
    1888A      7.554424  1889A      7.694350  1890A      7.695886  
    1891A      7.800195  1892A      7.898178  1893A      7.923857  
    1894A      8.384703  1895A     12.974275  1896A     42.962299  
    1897A     42.962431  1898A     42.975363  1899A     42.997383  

    Final Occupation by Irrep:
              A 
    DOCC [   300 ]
    NA   [   300 ]
    NB   [   300 ]

  @DF-RHF Final Energy: -3650.34102482162098

   => Energetics <=

    Nuclear Repulsion Energy =          15611.4211649754324753
    One-Electron Energy =              -36072.1714345672153286
    Two-Electron Energy =               16810.4092447701623314
    Total Energy =                      -3650.3410248216205218

Computation Completed


Properties will be evaluated at   0.000000,   0.000000,   0.000000 [a0]

Properties computed using the SCF density matrix


 Multipole Moments:

 ------------------------------------------------------------------------------------
     Multipole            Electronic (a.u.)      Nuclear  (a.u.)        Total (a.u.)
 ------------------------------------------------------------------------------------

 L = 1.  Multiply by 2.5417464519 to convert [e a0] to [Debye]
 Dipole X            :          0.0004188            0.0002304            0.0006492
 Dipole Y            :          0.0013986           -0.0013052            0.0000934
 Dipole Z            :       -210.8532133          210.8523476           -0.0008657
 Magnitude           :                                                    0.0010861

 ------------------------------------------------------------------------------------

*** tstop() called on n2cn0618 at Wed Feb  7 21:33:06 2024
Module time:
	user time   =   16005.17 seconds =     266.75 minutes
	system time =    1286.16 seconds =      21.44 minutes
	total time  =       1867 seconds =      31.12 minutes
Total time:
	user time   =   43048.92 seconds =     717.48 minutes
	system time =    3247.11 seconds =      54.12 minutes
	total time  =       5948 seconds =      99.13 minutes
  Constructing Basis Sets for SAPT...

   => Loading Basis Set <=

    Name: (JUN-CC-PVDZ AUX)
    Role: RIFIT
    Keyword: DF_BASIS_SAPT
    atoms 1                                                   entry B          line    56 file /opt/software/pc2/EB-SW/software/PSI4/1.9-foss-2022a/share/psi4/basis/jun-cc-pvdz-ri.gbs 
    atoms 2-5                                                 entry F          line   232 file /opt/software/pc2/EB-SW/software/PSI4/1.9-foss-2022a/share/psi4/basis/jun-cc-pvdz-ri.gbs 
    atoms 6-23, 30-42, 45-59, 62-78, 81-93, 98-108, 111-119   entry C          line   100 file /opt/software/pc2/EB-SW/software/PSI4/1.9-foss-2022a/share/psi4/basis/jun-cc-pvdz-ri.gbs 
    atoms 24-29, 43-44, 60-61, 79-80, 94-97, 109-110, 120-125 entry H          line    30 file /opt/software/pc2/EB-SW/software/PSI4/1.9-foss-2022a/share/psi4/basis/jun-cc-pvdz-ri.gbs 

   => Loading Basis Set <=

    Name: (JUN-CC-PVDZ AUX)
    Role: JKFIT
    Keyword: DF_BASIS_ELST
    atoms 1                                                   entry B          line    90 file /opt/software/pc2/EB-SW/software/PSI4/1.9-foss-2022a/share/psi4/basis/jun-cc-pvdz-jkfit.gbs 
    atoms 2-5                                                 entry F          line   314 file /opt/software/pc2/EB-SW/software/PSI4/1.9-foss-2022a/share/psi4/basis/jun-cc-pvdz-jkfit.gbs 
    atoms 6-23, 30-42, 45-59, 62-78, 81-93, 98-108, 111-119   entry C          line   146 file /opt/software/pc2/EB-SW/software/PSI4/1.9-foss-2022a/share/psi4/basis/jun-cc-pvdz-jkfit.gbs 
    atoms 24-29, 43-44, 60-61, 79-80, 94-97, 109-110, 120-125 entry H          line    70 file /opt/software/pc2/EB-SW/software/PSI4/1.9-foss-2022a/share/psi4/basis/jun-cc-pvdz-jkfit.gbs 


  //>>>>>>>>>>>>>>>>>>>>>>>>>>>>>>>>>>>//
  //               SSAPT0              //
  //<<<<<<<<<<<<<<<<<<<<<<<<<<<<<<<<<<<//


*** tstart() called on n2cn0618
*** at Wed Feb  7 21:33:08 2024

        SAPT0  
    Ed Hohenstein
     6 June 2009

      Orbital Information
  --------------------------
    NSO        =      1938
    NMO        =      1899
    NRI        =      6901
    NRI (Elst) =      8531
    NOCC A     =        21
    NOCC B     =       300
    FOCC A     =         5
    FOCC B     =        96
    NVIR A     =      1878
    NVIR B     =      1599

    Elst10,r            =    -0.206393221401 [Eh]
    Exch10              =     0.506651112332 [Eh]
    Exch10 (S^2)        =     0.482174884920 [Eh]

    Iter     Energy [mEh]          dE [mEh]         Residual      Time [s]
       1     -96.12982026      96.129820263      85.852347211            93
       2    -109.56948168      13.439661412      34.386310542           175
       3    -119.18256451       9.613082840       5.740229745           238
       4    -119.10295861      -0.079605908       1.657703302           308
       5    -118.94139534      -0.161563267       0.392800345           370
       6    -118.93799491      -0.003400434       0.117079596           450
       7    -118.94721103       0.009216120       0.022452467           512
       8    -118.94651274      -0.000698285       0.005075200           603
       9    -118.94640744      -0.000105297       0.000716843           689
      10    -118.94643936       0.000031913       0.000125096           793
      11    -118.94643579      -0.000003565       0.000027538           917
      12    -118.94643583       0.000000038       0.000006369          1038
      13    -118.94643592       0.000000094       0.000002070          1136
      14    -118.94643595       0.000000029       0.000000413          1260

    CHF Iterations converged


    Iter     Energy [mEh]          dE [mEh]         Residual      Time [s]
       1    -165.83256392     165.832563918     136.417661213           150
       2    -155.48733635     -10.345227568      34.595127967           271
       3    -170.13573669      14.648400342      10.808537121           387
       4    -171.78830021       1.652563519       3.092235784           496
       5    -171.39725552      -0.391044689       1.231400640           606
       6    -171.27219197      -0.125063551       0.560407955           713
       7    -171.31050386       0.038311887       0.249442875           823
       8    -171.33949009       0.028986231       0.112307378           938
       9    -171.33643349      -0.003056600       0.049908076          1065
      10    -171.33141950      -0.005013988       0.020051070          1203
      11    -171.33206918       0.000649682       0.012348927          1331
      12    -171.33312529       0.001056110       0.010316440          1451
      13    -171.33284806      -0.000277236       0.006459024          1595
      14    -171.33243847      -0.000409584       0.003158018          1713
      15    -171.33250705       0.000068581       0.001612497          1829
      16    -171.33258251       0.000075453       0.000677238          1960
      17    -171.33257786      -0.000004643       0.000228507          2109
      18    -171.33256920      -0.000008667       0.000102273          2227
      19    -171.33256785      -0.000001345       0.000053110          2338
      20    -171.33256926       0.000001410       0.000028680          2449
      21    -171.33257009       0.000000824       0.000013749          2558
      22    -171.33256963      -0.000000455       0.000007295          2665
      23    -171.33256946      -0.000000170       0.000004140          2780
      24    -171.33256961       0.000000151       0.000001958          2927
      25    -171.33256963       0.000000017       0.000000987          3072

    CHF Iterations converged

    Ind20,r (A<-B)      =    -0.118946435952 [Eh]
    Ind20,r (B<-A)      =    -0.171332569629 [Eh]
    Ind20,r             =    -0.290279005581 [Eh]
    Exch-Ind20,r (A<-B) =     0.091714317966 [Eh]
    Exch-Ind20,r (B<-A) =     0.120436052391 [Eh]
    Exch-Ind20,r        =     0.212150370357 [Eh]
    Disp20              =    -0.086591748442 [Eh]
    Disp20 (SS)         =    -0.043295874221 [Eh]
    Disp20 (OS)         =    -0.043295874221 [Eh]
    Exch-Disp20         =     0.030945427194 [Eh]
    Exch-Disp20 (SS)    =     0.015281564177 [Eh]
    Exch-Disp20 (OS)    =     0.015663863018 [Eh]

    SAPT Results 
  --------------------------------------------------------------------------------------------------------
    Electrostatics               -206.39322140 [mEh]    -129.51370175 [kcal/mol]    -541.88532813 [kJ/mol]
      Elst10,r                   -206.39322140 [mEh]    -129.51370175 [kcal/mol]    -541.88532813 [kJ/mol]

    Exchange                      506.65111233 [mEh]     317.92837289 [kcal/mol]    1330.21231216 [kJ/mol]
      Exch10                      506.65111233 [mEh]     317.92837289 [kcal/mol]    1330.21231216 [kJ/mol]
      Exch10(S^2)                 482.17488492 [mEh]     302.56930830 [kcal/mol]    1265.94998595 [kJ/mol]

    Induction                     -43.55108389 [mEh]     -27.32871773 [kcal/mol]    -114.34335500 [kJ/mol]
      Ind20,r                    -290.27900558 [mEh]    -182.15282604 [kcal/mol]    -762.12742416 [kJ/mol]
      Exch-Ind20,r                212.15037036 [mEh]     133.12636726 [kcal/mol]     557.00072064 [kJ/mol]
      delta HF,r (2)               34.57755133 [mEh]      21.69774104 [kcal/mol]      90.78334852 [kJ/mol]

    Dispersion                    -55.64632125 [mEh]     -34.91859376 [kcal/mol]    -146.09939631 [kJ/mol]
      Disp20                      -86.59174844 [mEh]     -54.33714250 [kcal/mol]    -227.34660421 [kJ/mol]
      Exch-Disp20                  30.94542719 [mEh]      19.41854873 [kcal/mol]      81.24720790 [kJ/mol]
      Disp20 (SS)                 -43.29587422 [mEh]     -27.16857125 [kcal/mol]    -113.67330211 [kJ/mol]
      Disp20 (OS)                 -43.29587422 [mEh]     -27.16857125 [kcal/mol]    -113.67330211 [kJ/mol]
      Exch-Disp20 (SS)             15.28156418 [mEh]       9.58932629 [kcal/mol]      40.12174122 [kJ/mol]
      Exch-Disp20 (OS)             15.66386302 [mEh]       9.82922244 [kcal/mol]      41.12546669 [kJ/mol]

  Total HF                        256.70680704 [mEh]     161.08595340 [kcal/mol]     673.98362903 [kJ/mol]
  Total SAPT0                     201.06048579 [mEh]     126.16735964 [kcal/mol]     527.88423272 [kJ/mol]

  Special recipe for scaled SAPT0 (see Manual):
    Electrostatics sSAPT0        -206.39322140 [mEh]    -129.51370175 [kcal/mol]    -541.88532813 [kJ/mol]
    Exchange sSAPT0               506.65111233 [mEh]     317.92837289 [kcal/mol]    1330.21231216 [kJ/mol]
    Induction sSAPT0               -9.57571183 [mEh]      -6.00884989 [kcal/mol]     -25.14102795 [kJ/mol]
    Dispersion sSAPT0             -50.69048544 [mEh]     -31.80875984 [kcal/mol]    -133.08785118 [kJ/mol]
  Total sSAPT0                    239.99169366 [mEh]     150.59706140 [kcal/mol]     630.09810490 [kJ/mol]
  --------------------------------------------------------------------------------------------------------

*** tstop() called on n2cn0618 at Thu Feb  8 00:35:21 2024
Module time:
	user time   =   64683.76 seconds =    1078.06 minutes
	system time =    3477.91 seconds =      57.97 minutes
	total time  =      10933 seconds =     182.22 minutes
Total time:
	user time   =  107734.06 seconds =    1795.57 minutes
	system time =    6725.03 seconds =     112.08 minutes
	total time  =      16883 seconds =     281.38 minutes

    Psi4 stopped on: Thursday, 08 February 2024 12:35AM
    Psi4 wall time for execution: 4:41:23.97

*** Psi4 exiting successfully. Buy a developer a beer!
