
    -----------------------------------------------------------------------
          Psi4: An Open-Source Ab Initio Electronic Structure Package
                               Psi4 1.9 release

                         Git: Rev {} zzzzzzz 


    D. G. A. Smith, L. A. Burns, A. C. Simmonett, R. M. Parrish,
    M. C. Schieber, R. Galvelis, P. Kraus, H. Kruse, R. Di Remigio,
    A. Alenaizan, A. M. James, S. Lehtola, J. P. Misiewicz, M. Scheurer,
    R. A. Shaw, J. B. Schriber, Y. Xie, Z. L. Glick, D. A. Sirianni,
    J. S. O'Brien, J. M. Waldrop, A. Kumar, E. G. Hohenstein,
    B. P. Pritchard, B. R. Brooks, H. F. Schaefer III, A. Yu. Sokolov,
    K. Patkowski, A. E. DePrince III, U. Bozkaya, R. A. King,
    F. A. Evangelista, J. M. Turney, T. D. Crawford, C. D. Sherrill,
    J. Chem. Phys. 152(18) 184108 (2020). https://doi.org/10.1063/5.0006002

                            Additional Code Authors
    E. T. Seidl, C. L. Janssen, E. F. Valeev, M. L. Leininger,
    J. F. Gonthier, R. M. Richard, H. R. McAlexander, M. Saitow, X. Wang,
    P. Verma, M. H. Lechner, A. Jiang, S. Behnle, A. G. Heide,
    M. F. Herbst, and D. L. Poole

             Previous Authors, Complete List of Code Contributors,
                       and Citations for Specific Modules
    https://github.com/psi4/psi4/blob/master/codemeta.json
    https://github.com/psi4/psi4/graphs/contributors
    http://psicode.org/psi4manual/master/introduction.html#citing-psifour

    -----------------------------------------------------------------------


    Psi4 started on: Monday, 22 January 2024 05:19PM

    Process ID: 362643
    Host:       d-16-5-1
    PSIDATADIR: /home/gridsan/tfroembgen/.conda/envs/psi4test/share/psi4
    Memory:     500.0 MiB
    Threads:    12
    
  ==> Input File <==

--------------------------------------------------------------------------
memory 32 GB # how much memory is available ! Depends on the nodes/cores !

molecule dimer {
# monomer A
+1 1    # Charge and multiplicity
C  0.680067 -1.215929 7.808042
C -0.680504 -1.215545 7.806014
N -1.085635  0.102779 7.805016
C  0.000108  0.884180 7.801740
C -2.477365  0.570758 7.755610
N  1.085222  0.102779 7.805016
H  1.385146 -2.033368 7.815870
H -1.385302 -2.033214 7.806204
H -0.000009  1.965269 7.799993
C  2.478117  0.567877 7.821908
H  2.490592  1.658130 7.794563
H  2.967028  0.220701 8.735354
H  3.001428  0.176405 6.946425
H -2.857359  0.490799 6.733539
H -3.082679 -0.042306 8.425694
H -2.518128  1.610706 8.082594
--
# monomer B
0 1     # Charge and multiplicity
C   1.22531237526482      0.70753866091955      0.00613762728373
C   1.22532433589282     -0.70753852257020     -0.00619318228664
C   -0.00000567409046      1.41496628609039     -0.00672680580738
C   2.45644923379077      1.41832825917820      0.00902448468363
C   0.00001130712078     -1.41497612663474      0.00347275151708
C   -1.22530046906674      0.70754574598412      0.00838914760619
C   2.45643823516184     -1.41832293188077     -0.00843833914343
C   -0.00000085313587      2.83680140328112     -0.00913035594137
C   3.68182717731192      0.70931832800114     -0.00808954934571
C   2.45512052870677      2.83422403348893     -0.00819210630633
C   3.68182158506039     -0.70933346742900      0.00798293467272
C   -1.22531311884624     -0.70752714354401     -0.00512042085974
C   1.22670006104402      3.54346985599427      0.00816696660346
C   0.00000526469929     -2.83678176723568      0.00832091913869
C   -2.45643555300670      1.41831729028492      0.00842454345199
C   2.45512389762097     -2.83422965658853      0.00783102630520
C   -1.22671388474763      3.54346943575023      0.00827029982280
C   4.91451777504333      1.42717324448953     -0.00160886631602
C   3.69315067131765      3.54279566454522     -0.00155906667985
C   -2.45643712022637     -1.41831290883911     -0.00846337726810
C   1.22670532178455     -3.54347386990643     -0.00780316414624
C   -2.45512491866593      2.83421703463423     -0.00818572995999
C   4.91452486062398     -1.42718653794377      0.00136387641845
C   1.22142509354026      4.97013443726031      0.00150231067809
C   4.89300870916237      2.82518837202648     -0.00039219795739
C   -1.22669652864725     -3.54347062507680     -0.00753595973677
C   -3.68181849668397      0.70932533873199     -0.00807686886569
C   3.69314758099218     -3.54280096939050      0.00148176697923
C   -1.22143177215231      4.97012866986289      0.00168580605083
C   6.13477145276790      0.68054831910577     -0.00083909176631
C   3.65678936045204      4.97295361556775     -0.00065042889723
C   -2.45512642789169     -2.83421472106065      0.00758666850712
C   -3.68181869921921     -0.70932533146830      0.00810055625144
C   4.89301309775526     -2.82519973363176      0.00021895393805
C   -0.00000059327114      5.65044773803267      0.00045449734393
C   6.13477559217374     -0.68055448207492      0.00042622874941
C   2.47813196269732      5.65357712333155      0.00063835075260
C   1.22142288457925     -4.97012668293268     -0.00129718634452
C   -3.69316190412301      3.54279732619245     -0.00139355922051
C   -1.22142804110313     -4.97011793159564     -0.00140994817719
C   -4.91452132810043      1.42717581899491     -0.00153192130862
C   3.65678749952045     -4.97295485423912      0.00080007163680
C   -2.47813805026426      5.65357479452875      0.00092287576113
C   -3.69314125872231     -3.54278984697859      0.00136564082345
C   -4.91451200321153     -1.42718062802730      0.00139857359209
C   -0.00000552908399     -5.65043791501335      0.00005899322272
C   -4.89302000425900      2.82518897091939     -0.00040227981744
C   2.47812647313991     -5.65357317188818     -0.00029052915548
C   -3.65679823041642      4.97295655404175     -0.00047374852278
C   -4.89299899901461     -2.82519139505969      0.00006491824035
C   -2.47812801824129     -5.65356579800621     -0.00056571680280
C   -6.13477002348955      0.68054913825639     -0.00086464346868
C   -3.65678835334731     -4.97294365097028      0.00058578382008
C   -6.13476456307132     -0.68055354348201      0.00040575295444
H   5.83528897565761      3.36927626695423      0.00396712770529
H   7.07385965258860      1.22821762089947     -0.00037744837300
H   4.60066374401555      5.51238117445323     -0.00014522814529
H   5.83528386714679     -3.36930568472863     -0.00423551337640
H   -0.00001167146422      6.73853104613662     -0.00389474766392
H   7.07386165167227     -1.22822657074368     -0.00008250934481
H   2.47331421164041      6.74068466339473      0.00017162982210
H   4.60066897122302     -5.51237575717576      0.00039007446835
H   -2.47331820069565      6.74068209160650      0.00047297644710
H   -0.00000978838621     -6.73852780445195      0.00458867820736
H   -5.83530143450167      3.36927132229595      0.00410314985360
H   2.47330840367253     -6.74068500242887      0.00027980126949
H   -4.60067436136587      5.51237839860371      0.00002010017831
H   -5.83527902699321     -3.36928859177951     -0.00451481925734
H   -2.47329986759855     -6.74067870613986     -0.00016951527498
H   -7.07385728692578      1.22822084484047     -0.00046143985387
H   -4.60067330624313     -5.51236229778631      0.00021776644566
H   -7.07385645456741     -1.22822025997701     -0.00017736581114

    units angstrom      # Angstroms are the default
    no_reorient         # Geometry fixed, default
    symmetry c1         # C1 symmetry, default
}

set {
    scf_type DF         # Density fitting, faster than exact integrals
    freeze_core True    # Freeze core electrons
    basis jun-cc-pVDZ   # Jun-cc-pVDZ basis set, recommended for sSAPT0 in https://doi.org/10.1063/1.4867135
}

energy('ssapt0')        # Compute sSAPT0 energy, includes also SAPT0
--------------------------------------------------------------------------

  Memory set to  29.802 GiB by Python driver.

Scratch directory: /state/partition1/slurm_tmp/24798259.4294967291.0/
   => Loading Basis Set <=

    Name: JUN-CC-PVDZ
    Role: ORBITAL
    Keyword: BASIS
    atoms 1-2, 4-5, 10, 17-70 entry C          line   164 file /home/gridsan/tfroembgen/.conda/envs/psi4test/share/psi4/basis/jun-cc-pvdz.gbs 
    atoms 3, 6                entry N          line   198 file /home/gridsan/tfroembgen/.conda/envs/psi4test/share/psi4/basis/jun-cc-pvdz.gbs 
    atoms 7-9, 11-16, 71-88   entry H          line    36 file /home/gridsan/tfroembgen/.conda/envs/psi4test/share/psi4/basis/jun-cc-pvdz.gbs 

   => Loading Basis Set <=

    Name: JUN-CC-PVDZ
    Role: ORBITAL
    Keyword: BASIS
    atoms 1-2, 4-5, 10, 17-70 entry C          line   164 file /home/gridsan/tfroembgen/.conda/envs/psi4test/share/psi4/basis/jun-cc-pvdz.gbs 
    atoms 3, 6                entry N          line   198 file /home/gridsan/tfroembgen/.conda/envs/psi4test/share/psi4/basis/jun-cc-pvdz.gbs 
    atoms 7-9, 11-16, 71-88   entry H          line    36 file /home/gridsan/tfroembgen/.conda/envs/psi4test/share/psi4/basis/jun-cc-pvdz.gbs 


  //>>>>>>>>>>>>>>>>>>>>>>>>>>>>>>>>>>>//
  //              Dimer HF             //
  //<<<<<<<<<<<<<<<<<<<<<<<<<<<<<<<<<<<//

   => Libint2 <=

    Primary   basis highest AM E, G, H:  7, 7, 4
    Auxiliary basis highest AM E, G, H:  7, 7, 5
    Onebody   basis highest AM E, G, H:  7, 7, 5
    Solid Harmonics ordering:            gaussian

*** tstart() called on d-16-5-1
*** at Mon Jan 22 17:19:15 2024

   => Loading Basis Set <=

    Name: JUN-CC-PVDZ
    Role: ORBITAL
    Keyword: BASIS
    atoms 1-2, 4-5, 10, 17-70 entry C          line   164 file /home/gridsan/tfroembgen/.conda/envs/psi4test/share/psi4/basis/jun-cc-pvdz.gbs 
    atoms 3, 6                entry N          line   198 file /home/gridsan/tfroembgen/.conda/envs/psi4test/share/psi4/basis/jun-cc-pvdz.gbs 
    atoms 7-9, 11-16, 71-88   entry H          line    36 file /home/gridsan/tfroembgen/.conda/envs/psi4test/share/psi4/basis/jun-cc-pvdz.gbs 


         ---------------------------------------------------------
                                   SCF
               by Justin Turney, Rob Parrish, Andy Simmonett
                          and Daniel G. A. Smith
                              RHF Reference
                       12 Threads,  30517 MiB Core
         ---------------------------------------------------------

  ==> Geometry <==

    Molecular point group: c1
    Full point group: C1

    Geometry (in Angstrom), charge = 1, multiplicity = 1:

       Center              X                  Y                   Z               Mass       
    ------------   -----------------  -----------------  -----------------  -----------------
         C            0.680066520158    -1.215933861162     6.815932039550    12.000000000000
         C           -0.680504479842    -1.215549861162     6.813904039550    12.000000000000
         N           -1.085635479842     0.102774138838     6.812906039550    14.003074004430
         C            0.000107520158     0.884175138838     6.809630039550    12.000000000000
         C           -2.477365479842     0.570753138838     6.763500039550    12.000000000000
         N            1.085221520158     0.102774138838     6.812906039550    14.003074004430
         H            1.385145520158    -2.033372861162     6.823760039550     1.007825032230
         H           -1.385302479842    -2.033218861162     6.814094039550     1.007825032230
         H           -0.000009479842     1.965264138838     6.807883039550     1.007825032230
         C            2.478116520158     0.567872138838     6.829798039550    12.000000000000
         H            2.490591520158     1.658125138838     6.802453039550     1.007825032230
         H            2.967027520158     0.220696138838     7.743244039550     1.007825032230
         H            3.001427520158     0.176400138838     5.954315039550     1.007825032230
         H           -2.857359479842     0.490794138838     5.741429039550     1.007825032230
         H           -3.082679479842    -0.042310861162     7.433584039550     1.007825032230
         H           -2.518128479842     1.610701138838     7.090484039550     1.007825032230
         C            1.225311895423     0.707533799757    -0.985972333167    12.000000000000
         C            1.225323856051    -0.707543383733    -0.998303142737    12.000000000000
         C           -0.000006153932     1.414961424928    -0.998836766258    12.000000000000
         C            2.456448753949     1.418323398016    -0.983085475767    12.000000000000
         C            0.000010827279    -1.414980987797    -0.988637208933    12.000000000000
         C           -1.225300948908     0.707540884822    -0.983720812844    12.000000000000
         C            2.456437755320    -1.418327793043    -1.000548299594    12.000000000000
         C           -0.000001332978     2.836796542119    -1.001240316392    12.000000000000
         C            3.681826697470     0.709313466839    -1.000199509796    12.000000000000
         C            2.455120048865     2.834219172327    -1.000302066757    12.000000000000
         C            3.681821105219    -0.709338328591    -0.984127025778    12.000000000000
         C           -1.225313598688    -0.707532004706    -0.997230381310    12.000000000000
         C            1.226699581202     3.543464994832    -0.983942993847    12.000000000000
         C            0.000004784858    -2.836786628398    -0.983789041312    12.000000000000
         C           -2.456436032848     1.418312429123    -0.983685416998    12.000000000000
         C            2.455123417779    -2.834234517751    -0.984278934145    12.000000000000
         C           -1.226714364589     3.543464574588    -0.983839660627    12.000000000000
         C            4.914517295202     1.427168383327    -0.993718826766    12.000000000000
         C            3.693150191476     3.542790803383    -0.993669027130    12.000000000000
         C           -2.456437600068    -1.418317770001    -1.000573337718    12.000000000000
         C            1.226704841943    -3.543478731069    -0.999913124596    12.000000000000
         C           -2.455125398508     2.834212173472    -1.000295690410    12.000000000000
         C            4.914524380782    -1.427191399106    -0.990746084032    12.000000000000
         C            1.221424613699     4.970129576098    -0.990607649772    12.000000000000
         C            4.893008229321     2.825183510864    -0.992502158408    12.000000000000
         C           -1.226697008489    -3.543475486239    -0.999645920187    12.000000000000
         C           -3.681818976526     0.709320477570    -1.000186829316    12.000000000000
         C            3.693147101150    -3.542805830553    -0.990628193471    12.000000000000
         C           -1.221432251994     4.970123808701    -0.990424154399    12.000000000000
         C            6.134770972926     0.680543457943    -0.992949052217    12.000000000000
         C            3.656788880610     4.972948754405    -0.992760389347    12.000000000000
         C           -2.455126907733    -2.834219582223    -0.984523291943    12.000000000000
         C           -3.681819179061    -0.709330192631    -0.984009404199    12.000000000000
         C            4.893012617914    -2.825204594794    -0.991891006512    12.000000000000
         C           -0.000001073113     5.650442876870    -0.991655463106    12.000000000000
         C            6.134775112332    -0.680559343237    -0.991683731701    12.000000000000
         C            2.478131482856     5.653572262169    -0.991471609698    12.000000000000
         C            1.221422404738    -4.970131544095    -0.993407146795    12.000000000000
         C           -3.693162383965     3.542792465030    -0.993503519671    12.000000000000
         C           -1.221428520945    -4.970122792758    -0.993519908627    12.000000000000
         C           -4.914521807942     1.427170957833    -0.993641881759    12.000000000000
         C            3.656787019679    -4.972959715401    -0.991309888813    12.000000000000
         C           -2.478138530106     5.653569933366    -0.991187084689    12.000000000000
         C           -3.693141738564    -3.542794708141    -0.990744319627    12.000000000000
         C           -4.914512483053    -1.427185489190    -0.990711386858    12.000000000000
         C           -0.000006008926    -5.650442776176    -0.992050967228    12.000000000000
         C           -4.893020484101     2.825184109757    -0.992512240268    12.000000000000
         C            2.478125993298    -5.653578033051    -0.992400489606    12.000000000000
         C           -3.656798710258     4.972951692879    -0.992583708973    12.000000000000
         C           -4.892999478856    -2.825196256222    -0.992045042210    12.000000000000
         C           -2.478128498083    -5.653570659169    -0.992675677253    12.000000000000
         C           -6.134770503331     0.680544277094    -0.992974603919    12.000000000000
         C           -3.656788833189    -4.972948512133    -0.991524176630    12.000000000000
         C           -6.134765042913    -0.680558404644    -0.991704207496    12.000000000000
         H            5.835288495816     3.369271405792    -0.988142832745     1.007825032230
         H            7.073859172747     1.228212759737    -0.992487408823     1.007825032230
         H            4.600663264174     5.512376313291    -0.992255188596     1.007825032230
         H            5.835283387305    -3.369310545891    -0.996345473827     1.007825032230
         H           -0.000012151306     6.738526184974    -0.996004708114     1.007825032230
         H            7.073861171831    -1.228231431906    -0.992192469795     1.007825032230
         H            2.473313731799     6.740679802232    -0.991938330628     1.007825032230
         H            4.600668491381    -5.512380618338    -0.991719885982     1.007825032230
         H           -2.473318680537     6.740677230444    -0.991636984003     1.007825032230
         H           -0.000010268228    -6.738532665614    -0.987521282243     1.007825032230
         H           -5.835301914343     3.369266461134    -0.988006810597     1.007825032230
         H            2.473307923831    -6.740689863591    -0.991830159181     1.007825032230
         H           -4.600674841208     5.512373537441    -0.992089860272     1.007825032230
         H           -5.835279506835    -3.369293452942    -0.996624779708     1.007825032230
         H           -2.473300347440    -6.740683567302    -0.992279475725     1.007825032230
         H           -7.073857766768     1.228215983678    -0.992571400304     1.007825032230
         H           -4.600673786085    -5.512367158949    -0.991892194005     1.007825032230
         H           -7.073856934409    -1.228225121139    -0.992287326261     1.007825032230

  Running in c1 symmetry.

  Rotational constants: A =      0.00131  B =      0.00130  C =      0.00109 [cm^-1]
  Rotational constants: A =     39.38696  B =     38.86699  C =     32.56831 [MHz]
  Nuclear repulsion = 7799.391229068412031

  Charge       = 1
  Multiplicity = 1
  Electrons    = 394
  Nalpha       = 197
  Nbeta        = 197

  ==> Algorithm <==

  SCF Algorithm Type is DF.
  DIIS enabled.
  MOM disabled.
  Fractional occupation disabled.
  Guess Type is SAD.
  Energy threshold   = 1.00e-08
  Density threshold  = 1.00e-08
  Integral threshold = 1.00e-12

  ==> Primary Basis <==

  Basis Set: JUN-CC-PVDZ
    Blend: JUN-CC-PVDZ
    Number of shells: 569
    Number of basis functions: 1233
    Number of Cartesian functions: 1294
    Spherical Harmonics?: true
    Max angular momentum: 2

   => Loading Basis Set <=

    Name: (JUN-CC-PVDZ AUX)
    Role: JKFIT
    Keyword: DF_BASIS_SCF
    atoms 1-2, 4-5, 10, 17-70 entry C          line   146 file /home/gridsan/tfroembgen/.conda/envs/psi4test/share/psi4/basis/jun-cc-pvdz-jkfit.gbs 
    atoms 3, 6                entry N          line   202 file /home/gridsan/tfroembgen/.conda/envs/psi4test/share/psi4/basis/jun-cc-pvdz-jkfit.gbs 
    atoms 7-9, 11-16, 71-88   entry H          line    70 file /home/gridsan/tfroembgen/.conda/envs/psi4test/share/psi4/basis/jun-cc-pvdz-jkfit.gbs 

  ==> Integral Setup <==

  ==> DiskDFJK: Density-Fitted J/K Matrices <==

    J tasked:                  Yes
    K tasked:                  Yes
    wK tasked:                  No
    OpenMP threads:             12
    Integrals threads:          12
    Memory [MiB]:            22888
    Algorithm:                Core
    Integral Cache:           SAVE
    Schwarz Cutoff:          1E-12
    Fitting Condition:       1E-10

   => Auxiliary Basis Set <=

  Basis Set: (JUN-CC-PVDZ AUX)
    Blend: JUN-CC-PVDZ-JKFIT
    Number of shells: 1890
    Number of basis functions: 5440
    Number of Cartesian functions: 6226
    Spherical Harmonics?: true
    Max angular momentum: 3

  Minimum eigenvalue in the overlap matrix is 8.3980197082E-10.
  Reciprocal condition number of the overlap matrix is 3.7566274817E-11.
    Using canonical orthogonalization.
  Overall, 14 of 1233 possible MOs eliminated.


  ==> Pre-Iterations <==

  SCF Guess: Superposition of Atomic Densities via on-the-fly atomic UHF (no occupation information).

   -------------------------
    Irrep   Nso     Nmo    
   -------------------------
     A       1233    1219 
   -------------------------
    Total    1233    1219
   -------------------------

  ==> Iterations <==

                           Total Energy        Delta E     RMS |[F,P]|

   @DF-RHF iter SAD: -2365.39388335591229   -2.36539e+03   0.00000e+00 
   @DF-RHF iter   1: -2358.18519657316119    7.20869e+00   9.49425e-04 ADIIS/DIIS
   @DF-RHF iter   2: -2359.08600773320268   -9.00811e-01   3.27379e-04 ADIIS/DIIS
   @DF-RHF iter   3: -2359.17990565705077   -9.38979e-02   1.21226e-04 ADIIS/DIIS
   @DF-RHF iter   4: -2359.19360506741486   -1.36994e-02   4.61686e-05 DIIS
   @DF-RHF iter   5: -2359.19568220607789   -2.07714e-03   1.09221e-05 DIIS
   @DF-RHF iter   6: -2359.19587113821717   -1.88932e-04   5.32619e-06 DIIS
   @DF-RHF iter   7: -2359.19594489273550   -7.37545e-05   2.27728e-06 DIIS
   @DF-RHF iter   8: -2359.19596599188617   -2.10992e-05   1.12721e-06 DIIS
   @DF-RHF iter   9: -2359.19597127428233   -5.28240e-06   2.61252e-07 DIIS
   @DF-RHF iter  10: -2359.19597152155120   -2.47269e-07   8.45651e-08 DIIS
   @DF-RHF iter  11: -2359.19597153900759   -1.74564e-08   3.12839e-08 DIIS
   @DF-RHF iter  12: -2359.19597154251232   -3.50474e-09   1.18891e-08 DIIS
   @DF-RHF iter  13: -2359.19597154282565   -3.13321e-10   5.51295e-09 DIIS
  Energy and wave function converged.


  ==> Post-Iterations <==

    Orbital Energies [Eh]
    ---------------------

    Doubly Occupied:                                                      

       1A    -15.825865     2A    -15.825333     3A    -11.520802  
       4A    -11.451102     5A    -11.449548     6A    -11.441204  
       7A    -11.440984     8A    -11.316204     9A    -11.315726  
      10A    -11.315707    11A    -11.314788    12A    -11.314783  
      13A    -11.314404    14A    -11.313982    15A    -11.313865  
      16A    -11.313742    17A    -11.313604    18A    -11.313570  
      19A    -11.313322    20A    -11.312695    21A    -11.312619  
      22A    -11.312542    23A    -11.312509    24A    -11.312403  
      25A    -11.312380    26A    -11.312296    27A    -11.312265  
      28A    -11.312228    29A    -11.312187    30A    -11.311953  
      31A    -11.311912    32A    -11.311687    33A    -11.311643  
      34A    -11.311565    35A    -11.311533    36A    -11.311247  
      37A    -11.311227    38A    -11.310975    39A    -11.310896  
      40A    -11.310815    41A    -11.310784    42A    -11.310549  
      43A    -11.310464    44A    -11.305058    45A    -11.305031  
      46A    -11.305006    47A    -11.304916    48A    -11.304890  
      49A    -11.304860    50A    -11.304828    51A    -11.304739  
      52A    -11.304719    53A    -11.304521    54A    -11.304356  
      55A    -11.304341    56A    -11.303495    57A    -11.303474  
      58A    -11.303421    59A    -11.303388    60A    -11.302925  
      61A    -11.302917    62A     -1.569401    63A     -1.425033  
      64A     -1.299276    65A     -1.274441    66A     -1.274353  
      67A     -1.243716    68A     -1.243711    69A     -1.235613  
      70A     -1.229897    71A     -1.211279    72A     -1.203056  
      73A     -1.189975    74A     -1.189899    75A     -1.180627  
      76A     -1.166848    77A     -1.166833    78A     -1.136692  
      79A     -1.136689    80A     -1.132857    81A     -1.119503  
      82A     -1.119493    83A     -1.110272    84A     -1.093188  
      85A     -1.078876    86A     -1.076321    87A     -1.076306  
      88A     -1.071330    89A     -1.066153    90A     -1.041119  
      91A     -1.041116    92A     -1.015510    93A     -1.015487  
      94A     -1.013795    95A     -0.988243    96A     -0.947984  
      97A     -0.947937    98A     -0.942454    99A     -0.940701  
     100A     -0.940601   101A     -0.935570   102A     -0.935504  
     103A     -0.915479   104A     -0.908416   105A     -0.890409  
     106A     -0.871923   107A     -0.870891   108A     -0.866197  
     109A     -0.866145   110A     -0.848009   111A     -0.848003  
     112A     -0.841679   113A     -0.807635   114A     -0.804491  
     115A     -0.800924   116A     -0.798986   117A     -0.787509  
     118A     -0.787440   119A     -0.785554   120A     -0.785500  
     121A     -0.781470   122A     -0.777548   123A     -0.773135  
     124A     -0.770306   125A     -0.752583   126A     -0.752524  
     127A     -0.747396   128A     -0.747338   129A     -0.721227  
     130A     -0.717338   131A     -0.714490   132A     -0.708399  
     133A     -0.706916   134A     -0.705285   135A     -0.703463  
     136A     -0.703440   137A     -0.692851   138A     -0.692824  
     139A     -0.683571   140A     -0.681359   141A     -0.681343  
     142A     -0.661893   143A     -0.658118   144A     -0.655724  
     145A     -0.653124   146A     -0.653059   147A     -0.647628  
     148A     -0.645522   149A     -0.645472   150A     -0.638032  
     151A     -0.631141   152A     -0.631019   153A     -0.620423  
     154A     -0.620404   155A     -0.619946   156A     -0.619872  
     157A     -0.612632   158A     -0.608000   159A     -0.607922  
     160A     -0.592454   161A     -0.592441   162A     -0.591807  
     163A     -0.591791   164A     -0.587514   165A     -0.583304  
     166A     -0.582932   167A     -0.576472   168A     -0.576404  
     169A     -0.553610   170A     -0.549295   171A     -0.546521  
     172A     -0.541929   173A     -0.539031   174A     -0.535410  
     175A     -0.535382   176A     -0.524941   177A     -0.524841  
     178A     -0.514976   179A     -0.505344   180A     -0.505226  
     181A     -0.492640   182A     -0.492625   183A     -0.459157  
     184A     -0.459150   185A     -0.457786   186A     -0.428811  
     187A     -0.428803   188A     -0.403032   189A     -0.392735  
     190A     -0.391609   191A     -0.391587   192A     -0.364873  
     193A     -0.351111   194A     -0.338851   195A     -0.338841  
     196A     -0.278766   197A     -0.278759  

    Virtual:                                                              

     198A     -0.060579   199A     -0.055612   200A     -0.047693  
     201A     -0.041218   202A     -0.039906   203A     -0.039784  
     204A     -0.024295   205A     -0.022639   206A     -0.019352  
     207A     -0.018017   208A     -0.005151   209A     -0.000911  
     210A      0.000159   211A      0.005213   212A      0.005838  
     213A      0.005958   214A      0.006301   215A      0.008925  
     216A      0.009366   217A      0.010338   218A      0.010446  
     219A      0.011159   220A      0.014535   221A      0.018247  
     222A      0.027288   223A      0.029151   224A      0.029334  
     225A      0.029767   226A      0.031764   227A      0.032679  
     228A      0.033116   229A      0.035051   230A      0.035417  
     231A      0.036761   232A      0.041821   233A      0.042158  
     234A      0.044715   235A      0.044804   236A      0.045661  
     237A      0.045683   238A      0.052214   239A      0.053825  
     240A      0.056748   241A      0.059928   242A      0.061801  
     243A      0.064522   244A      0.064770   245A      0.064832  
     246A      0.069436   247A      0.071290   248A      0.072017  
     249A      0.073150   250A      0.074002   251A      0.075611  
     252A      0.076679   253A      0.078938   254A      0.084752  
     255A      0.085377   256A      0.085436   257A      0.087843  
     258A      0.087961   259A      0.089281   260A      0.090283  
     261A      0.094189   262A      0.095295   263A      0.096134  
     264A      0.103339   265A      0.104257   266A      0.104449  
     267A      0.106058   268A      0.107203   269A      0.108607  
     270A      0.110842   271A      0.112495   272A      0.113492  
     273A      0.120569   274A      0.121284   275A      0.123982  
     276A      0.126322   277A      0.129662   278A      0.130439  
     279A      0.131485   280A      0.132970   281A      0.134216  
     282A      0.134772   283A      0.135274   284A      0.135889  
     285A      0.137092   286A      0.138482   287A      0.140498  
     288A      0.140981   289A      0.141830   290A      0.144051  
     291A      0.145587   292A      0.148484   293A      0.150918  
     294A      0.154318   295A      0.157017   296A      0.158411  
     297A      0.161993   298A      0.162535   299A      0.162744  
     300A      0.163055   301A      0.164037   302A      0.164499  
     303A      0.164978   304A      0.165522   305A      0.167223  
     306A      0.169407   307A      0.169761   308A      0.171087  
     309A      0.174304   310A      0.175945   311A      0.176737  
     312A      0.179042   313A      0.179723   314A      0.180910  
     315A      0.181731   316A      0.182643   317A      0.183006  
     318A      0.184455   319A      0.184836   320A      0.187517  
     321A      0.189492   322A      0.190957   323A      0.193972  
     324A      0.196258   325A      0.197133   326A      0.198344  
     327A      0.200592   328A      0.201428   329A      0.203143  
     330A      0.204112   331A      0.204471   332A      0.206604  
     333A      0.207671   334A      0.208144   335A      0.211583  
     336A      0.215480   337A      0.216556   338A      0.216615  
     339A      0.217353   340A      0.217609   341A      0.218700  
     342A      0.218741   343A      0.219131   344A      0.223309  
     345A      0.223426   346A      0.228124   347A      0.231178  
     348A      0.232268   349A      0.235564   350A      0.236250  
     351A      0.239764   352A      0.240721   353A      0.241776  
     354A      0.246362   355A      0.246937   356A      0.250276  
     357A      0.251491   358A      0.252122   359A      0.252262  
     360A      0.255005   361A      0.257193   362A      0.258050  
     363A      0.258292   364A      0.258652   365A      0.259269  
     366A      0.260876   367A      0.260960   368A      0.263609  
     369A      0.265379   370A      0.265793   371A      0.267002  
     372A      0.269515   373A      0.270008   374A      0.270909  
     375A      0.271001   376A      0.272455   377A      0.272836  
     378A      0.273971   379A      0.277366   380A      0.278350  
     381A      0.279963   382A      0.283507   383A      0.284519  
     384A      0.286888   385A      0.289000   386A      0.291433  
     387A      0.292349   388A      0.294709   389A      0.295023  
     390A      0.295763   391A      0.297043   392A      0.298377  
     393A      0.300061   394A      0.300568   395A      0.301783  
     396A      0.304669   397A      0.305108   398A      0.310008  
     399A      0.310585   400A      0.315227   401A      0.317385  
     402A      0.321058   403A      0.321740   404A      0.321771  
     405A      0.322807   406A      0.325319   407A      0.327068  
     408A      0.332322   409A      0.332498   410A      0.334626  
     411A      0.336327   412A      0.338863   413A      0.338988  
     414A      0.339137   415A      0.339735   416A      0.341308  
     417A      0.343026   418A      0.344157   419A      0.344543  
     420A      0.346516   421A      0.346750   422A      0.350195  
     423A      0.351246   424A      0.352929   425A      0.353308  
     426A      0.353759   427A      0.353815   428A      0.355467  
     429A      0.355656   430A      0.358320   431A      0.358750  
     432A      0.359522   433A      0.364217   434A      0.368238  
     435A      0.368505   436A      0.368909   437A      0.371266  
     438A      0.371390   439A      0.376298   440A      0.380738  
     441A      0.384027   442A      0.384325   443A      0.386655  
     444A      0.391175   445A      0.391306   446A      0.392677  
     447A      0.392866   448A      0.395749   449A      0.398162  
     450A      0.398645   451A      0.399729   452A      0.403018  
     453A      0.405704   454A      0.407420   455A      0.407502  
     456A      0.407698   457A      0.408363   458A      0.409613  
     459A      0.409887   460A      0.412206   461A      0.413910  
     462A      0.415373   463A      0.418283   464A      0.420476  
     465A      0.424960   466A      0.429477   467A      0.429629  
     468A      0.430688   469A      0.430778   470A      0.440294  
     471A      0.440776   472A      0.440878   473A      0.442045  
     474A      0.442453   475A      0.443161   476A      0.445336  
     477A      0.449255   478A      0.449294   479A      0.450709  
     480A      0.453181   481A      0.454043   482A      0.459845  
     483A      0.460295   484A      0.461165   485A      0.461582  
     486A      0.466299   487A      0.466526   488A      0.471748  
     489A      0.473213   490A      0.473626   491A      0.474883  
     492A      0.485564   493A      0.487517   494A      0.487926  
     495A      0.491303   496A      0.495179   497A      0.495226  
     498A      0.495481   499A      0.500097   500A      0.500170  
     501A      0.500314   502A      0.502346   503A      0.502593  
     504A      0.503331   505A      0.507935   506A      0.508751  
     507A      0.508988   508A      0.513900   509A      0.516525  
     510A      0.516635   511A      0.533518   512A      0.534319  
     513A      0.543266   514A      0.543920   515A      0.544636  
     516A      0.552259   517A      0.560669   518A      0.561182  
     519A      0.568125   520A      0.568483   521A      0.573392  
     522A      0.573701   523A      0.580801   524A      0.591301  
     525A      0.595872   526A      0.596174   527A      0.601214  
     528A      0.613869   529A      0.614129   530A      0.615847  
     531A      0.616582   532A      0.624311   533A      0.624402  
     534A      0.625684   535A      0.639768   536A      0.657890  
     537A      0.660732   538A      0.663004   539A      0.663117  
     540A      0.668265   541A      0.677779   542A      0.679593  
     543A      0.687539   544A      0.689285   545A      0.690369  
     546A      0.690538   547A      0.690840   548A      0.694989  
     549A      0.701824   550A      0.704010   551A      0.704173  
     552A      0.704929   553A      0.709092   554A      0.713669  
     555A      0.718110   556A      0.729968   557A      0.738057  
     558A      0.742771   559A      0.744100   560A      0.745129  
     561A      0.746329   562A      0.752797   563A      0.754253  
     564A      0.754598   565A      0.757546   566A      0.761160  
     567A      0.761616   568A      0.764358   569A      0.770759  
     570A      0.772034   571A      0.774905   572A      0.775172  
     573A      0.776035   574A      0.780534   575A      0.784397  
     576A      0.786092   577A      0.789342   578A      0.795444  
     579A      0.796089   580A      0.802660   581A      0.802827  
     582A      0.805828   583A      0.811628   584A      0.811898  
     585A      0.818434   586A      0.819874   587A      0.820585  
     588A      0.822761   589A      0.823249   590A      0.824054  
     591A      0.824959   592A      0.825119   593A      0.827045  
     594A      0.834285   595A      0.836043   596A      0.836180  
     597A      0.843462   598A      0.845073   599A      0.845181  
     600A      0.848943   601A      0.854772   602A      0.855226  
     603A      0.856381   604A      0.856612   605A      0.857553  
     606A      0.858733   607A      0.861205   608A      0.862464  
     609A      0.864964   610A      0.869169   611A      0.869247  
     612A      0.875231   613A      0.878383   614A      0.878806  
     615A      0.879074   616A      0.882934   617A      0.883028  
     618A      0.887734   619A      0.889208   620A      0.892300  
     621A      0.892479   622A      0.893379   623A      0.902315  
     624A      0.904086   625A      0.904335   626A      0.910155  
     627A      0.917380   628A      0.917420   629A      0.918470  
     630A      0.918876   631A      0.920229   632A      0.920321  
     633A      0.923893   634A      0.925718   635A      0.927606  
     636A      0.934701   637A      0.934826   638A      0.940632  
     639A      0.945164   640A      0.945297   641A      0.951279  
     642A      0.952218   643A      0.958558   644A      0.962764  
     645A      0.962890   646A      0.963715   647A      0.965762  
     648A      0.965824   649A      0.974768   650A      0.978137  
     651A      0.978369   652A      0.980829   653A      0.981778  
     654A      0.982485   655A      0.984029   656A      0.986382  
     657A      0.986855   658A      0.987873   659A      0.988162  
     660A      0.991435   661A      0.991702   662A      0.992283  
     663A      0.993237   664A      0.993890   665A      0.995933  
     666A      1.000540   667A      1.001867   668A      1.006493  
     669A      1.007604   670A      1.007947   671A      1.008170  
     672A      1.011657   673A      1.015884   674A      1.016698  
     675A      1.019057   676A      1.019120   677A      1.023164  
     678A      1.027219   679A      1.027463   680A      1.028159  
     681A      1.030776   682A      1.031366   683A      1.031519  
     684A      1.035005   685A      1.037289   686A      1.038356  
     687A      1.041865   688A      1.050610   689A      1.050989  
     690A      1.051278   691A      1.054870   692A      1.062759  
     693A      1.062990   694A      1.063057   695A      1.063387  
     696A      1.066894   697A      1.068236   698A      1.072552  
     699A      1.072700   700A      1.074482   701A      1.079274  
     702A      1.081369   703A      1.081462   704A      1.087284  
     705A      1.087347   706A      1.087950   707A      1.090350  
     708A      1.090453   709A      1.100941   710A      1.107241  
     711A      1.111184   712A      1.113953   713A      1.120679  
     714A      1.123906   715A      1.124097   716A      1.129491  
     717A      1.129543   718A      1.130252   719A      1.132732  
     720A      1.135183   721A      1.142331   722A      1.142990  
     723A      1.145893   724A      1.145976   725A      1.148223  
     726A      1.157247   727A      1.159499   728A      1.164739  
     729A      1.164781   730A      1.167481   731A      1.169761  
     732A      1.169797   733A      1.169904   734A      1.184723  
     735A      1.186261   736A      1.186439   737A      1.203696  
     738A      1.205156   739A      1.209206   740A      1.209289  
     741A      1.209621   742A      1.209825   743A      1.212688  
     744A      1.212763   745A      1.215652   746A      1.221426  
     747A      1.224188   748A      1.241105   749A      1.241673  
     750A      1.243896   751A      1.244205   752A      1.244676  
     753A      1.245308   754A      1.255173   755A      1.255663  
     756A      1.256113   757A      1.256703   758A      1.266099  
     759A      1.266199   760A      1.268260   761A      1.268919  
     762A      1.276277   763A      1.276397   764A      1.279025  
     765A      1.282850   766A      1.286299   767A      1.287863  
     768A      1.288110   769A      1.289571   770A      1.291601  
     771A      1.293929   772A      1.300650   773A      1.300654  
     774A      1.304910   775A      1.305429   776A      1.306124  
     777A      1.306669   778A      1.312673   779A      1.313196  
     780A      1.327503   781A      1.328053   782A      1.337819  
     783A      1.343913   784A      1.350091   785A      1.350639  
     786A      1.353338   787A      1.354654   788A      1.357686  
     789A      1.359251   790A      1.359532   791A      1.365998  
     792A      1.369017   793A      1.371954   794A      1.373541  
     795A      1.375132   796A      1.376658   797A      1.377890  
     798A      1.383423   799A      1.383528   800A      1.386012  
     801A      1.386915   802A      1.387037   803A      1.394817  
     804A      1.395265   805A      1.396964   806A      1.409150  
     807A      1.409331   808A      1.418917   809A      1.419637  
     810A      1.434741   811A      1.463007   812A      1.463491  
     813A      1.467153   814A      1.467187   815A      1.472954  
     816A      1.477352   817A      1.487208   818A      1.498249  
     819A      1.511533   820A      1.519627   821A      1.525931  
     822A      1.543497   823A      1.545365   824A      1.545936  
     825A      1.553961   826A      1.554024   827A      1.555035  
     828A      1.557594   829A      1.557769   830A      1.561326  
     831A      1.567627   832A      1.567914   833A      1.571855  
     834A      1.575315   835A      1.575627   836A      1.586206  
     837A      1.586241   838A      1.589181   839A      1.589374  
     840A      1.589429   841A      1.589500   842A      1.596054  
     843A      1.607274   844A      1.607358   845A      1.613728  
     846A      1.614324   847A      1.621539   848A      1.621627  
     849A      1.622792   850A      1.623366   851A      1.623457  
     852A      1.628355   853A      1.629039   854A      1.632621  
     855A      1.632672   856A      1.642480   857A      1.643817  
     858A      1.645897   859A      1.646028   860A      1.646533  
     861A      1.650079   862A      1.650180   863A      1.662456  
     864A      1.662530   865A      1.671735   866A      1.679307  
     867A      1.687881   868A      1.689772   869A      1.695238  
     870A      1.697217   871A      1.707457   872A      1.707612  
     873A      1.708307   874A      1.708782   875A      1.723161  
     876A      1.723178   877A      1.737893   878A      1.738001  
     879A      1.738562   880A      1.755533   881A      1.758446  
     882A      1.762575   883A      1.763463   884A      1.763615  
     885A      1.765041   886A      1.766827   887A      1.770394  
     888A      1.770494   889A      1.777204   890A      1.777250  
     891A      1.783484   892A      1.785825   893A      1.788228  
     894A      1.788458   895A      1.807015   896A      1.807245  
     897A      1.807859   898A      1.807992   899A      1.810850  
     900A      1.813509   901A      1.815299   902A      1.817804  
     903A      1.819860   904A      1.825525   905A      1.826080  
     906A      1.826125   907A      1.842483   908A      1.842549  
     909A      1.846793   910A      1.850309   911A      1.850414  
     912A      1.851950   913A      1.854551   914A      1.854722  
     915A      1.860565   916A      1.861190   917A      1.863846  
     918A      1.863956   919A      1.865307   920A      1.866577  
     921A      1.868215   922A      1.868351   923A      1.877071  
     924A      1.886928   925A      1.888294   926A      1.888629  
     927A      1.888816   928A      1.894150   929A      1.894361  
     930A      1.899792   931A      1.900106   932A      1.900508  
     933A      1.900826   934A      1.902391   935A      1.904240  
     936A      1.904929   937A      1.917526   938A      1.928657  
     939A      1.928702   940A      1.936196   941A      1.943564  
     942A      1.945290   943A      1.945412   944A      1.950648  
     945A      1.954051   946A      1.955559   947A      1.959201  
     948A      1.959513   949A      1.973338   950A      1.973713  
     951A      1.974017   952A      1.976348   953A      1.976508  
     954A      1.976941   955A      1.977621   956A      1.977833  
     957A      1.994504   958A      1.998296   959A      1.998713  
     960A      2.003644   961A      2.004446   962A      2.006244  
     963A      2.006588   964A      2.012775   965A      2.014462  
     966A      2.016210   967A      2.017450   968A      2.017789  
     969A      2.022211   970A      2.022497   971A      2.026786  
     972A      2.030234   973A      2.030407   974A      2.039636  
     975A      2.040648   976A      2.042904   977A      2.043664  
     978A      2.046867   979A      2.047110   980A      2.047976  
     981A      2.053025   982A      2.054712   983A      2.054804  
     984A      2.055244   985A      2.055476   986A      2.056665  
     987A      2.060996   988A      2.066002   989A      2.066058  
     990A      2.066432   991A      2.066566   992A      2.072819  
     993A      2.072899   994A      2.075334   995A      2.079985  
     996A      2.080994   997A      2.082781   998A      2.082875  
     999A      2.089939  1000A      2.089963  1001A      2.092329  
    1002A      2.102199  1003A      2.105313  1004A      2.105472  
    1005A      2.108943  1006A      2.109109  1007A      2.116794  
    1008A      2.124902  1009A      2.124983  1010A      2.137813  
    1011A      2.138180  1012A      2.138466  1013A      2.140963  
    1014A      2.141073  1015A      2.141512  1016A      2.143708  
    1017A      2.143891  1018A      2.147602  1019A      2.164499  
    1020A      2.165997  1021A      2.166069  1022A      2.166157  
    1023A      2.173124  1024A      2.174385  1025A      2.174528  
    1026A      2.175201  1027A      2.190860  1028A      2.191292  
    1029A      2.191458  1030A      2.191737  1031A      2.194515  
    1032A      2.207125  1033A      2.207551  1034A      2.208257  
    1035A      2.216812  1036A      2.216836  1037A      2.219082  
    1038A      2.219120  1039A      2.228847  1040A      2.231069  
    1041A      2.247232  1042A      2.253519  1043A      2.254522  
    1044A      2.256331  1045A      2.258241  1046A      2.265794  
    1047A      2.268214  1048A      2.276329  1049A      2.276424  
    1050A      2.276903  1051A      2.279629  1052A      2.296648  
    1053A      2.297268  1054A      2.298871  1055A      2.298899  
    1056A      2.302660  1057A      2.312167  1058A      2.312284  
    1059A      2.319800  1060A      2.325930  1061A      2.327329  
    1062A      2.339604  1063A      2.362814  1064A      2.370237  
    1065A      2.370826  1066A      2.370894  1067A      2.383330  
    1068A      2.387150  1069A      2.387213  1070A      2.416117  
    1071A      2.419441  1072A      2.419696  1073A      2.431998  
    1074A      2.432097  1075A      2.445263  1076A      2.448739  
    1077A      2.464501  1078A      2.466484  1079A      2.476114  
    1080A      2.476257  1081A      2.490496  1082A      2.492277  
    1083A      2.492363  1084A      2.500417  1085A      2.501860  
    1086A      2.501867  1087A      2.504852  1088A      2.506265  
    1089A      2.506308  1090A      2.519233  1091A      2.519270  
    1092A      2.522158  1093A      2.522681  1094A      2.533002  
    1095A      2.533096  1096A      2.533392  1097A      2.536328  
    1098A      2.539085  1099A      2.552982  1100A      2.570479  
    1101A      2.570513  1102A      2.571380  1103A      2.577130  
    1104A      2.577903  1105A      2.578329  1106A      2.588199  
    1107A      2.588281  1108A      2.598020  1109A      2.598377  
    1110A      2.603670  1111A      2.609498  1112A      2.627981  
    1113A      2.629068  1114A      2.630749  1115A      2.634307  
    1116A      2.640139  1117A      2.647535  1118A      2.647811  
    1119A      2.658890  1120A      2.658976  1121A      2.664704  
    1122A      2.664811  1123A      2.666152  1124A      2.669099  
    1125A      2.669289  1126A      2.676886  1127A      2.682196  
    1128A      2.683502  1129A      2.692164  1130A      2.699030  
    1131A      2.699428  1132A      2.710653  1133A      2.722785  
    1134A      2.740442  1135A      2.740552  1136A      2.742068  
    1137A      2.752001  1138A      2.761785  1139A      2.772855  
    1140A      2.774045  1141A      2.790228  1142A      2.797683  
    1143A      2.798131  1144A      2.801316  1145A      2.803644  
    1146A      2.805394  1147A      2.805506  1148A      2.813769  
    1149A      2.863927  1150A      2.864097  1151A      2.870573  
    1152A      2.880518  1153A      2.880622  1154A      2.896273  
    1155A      2.896296  1156A      2.909752  1157A      2.924229  
    1158A      2.952834  1159A      2.953145  1160A      2.959367  
    1161A      2.976539  1162A      2.980986  1163A      3.009893  
    1164A      3.009908  1165A      3.016711  1166A      3.016844  
    1167A      3.049825  1168A      3.056275  1169A      3.057052  
    1170A      3.068598  1171A      3.074752  1172A      3.076263  
    1173A      3.076444  1174A      3.084246  1175A      3.092865  
    1176A      3.093157  1177A      3.093225  1178A      3.095958  
    1179A      3.096040  1180A      3.104476  1181A      3.104980  
    1182A      3.112435  1183A      3.112987  1184A      3.138888  
    1185A      3.158401  1186A      3.164339  1187A      3.183865  
    1188A      3.217851  1189A      3.223159  1190A      3.223261  
    1191A      3.227933  1192A      3.228197  1193A      3.362080  
    1194A      3.362612  1195A      3.386532  1196A      3.426887  
    1197A      3.429456  1198A      3.443964  1199A      3.494375  
    1200A      3.522351  1201A      3.524256  1202A      3.532793  
    1203A      3.539146  1204A      3.572656  1205A      3.574664  
    1206A      3.609019  1207A      3.613647  1208A      3.715172  
    1209A      3.728302  1210A      3.729203  1211A      3.817451  
    1212A      3.817530  1213A      3.859478  1214A      3.859650  
    1215A      3.922639  1216A      3.956521  1217A      3.977308  
    1218A      3.989139  1219A      4.025228  

    Final Occupation by Irrep:
              A 
    DOCC [   197 ]
    NA   [   197 ]
    NB   [   197 ]

  @DF-RHF Final Energy: -2359.19597154282565

   => Energetics <=

    Nuclear Repulsion Energy =           7799.3912290684120308
    One-Electron Energy =              -18705.4840988085124991
    Two-Electron Energy =                8546.8968981972739130
    Total Energy =                      -2359.1959715428256459

Computation Completed


Properties will be evaluated at   0.000000,   0.000000,   0.000000 [a0]

Properties computed using the SCF density matrix


 Multipole Moments:

 ------------------------------------------------------------------------------------
     Multipole            Electronic (a.u.)      Nuclear  (a.u.)        Total (a.u.)
 ------------------------------------------------------------------------------------

 L = 1.  Multiply by 2.5417464519 to convert [e a0] to [Debye]
 Dipole X            :          0.0022712            0.0006313            0.0029025
 Dipole Y            :         -1.4964716            1.8864948            0.3900232
 Dipole Z            :        -28.4340685           40.6029315           12.1688630
 Magnitude           :                                                   12.1751121

 ------------------------------------------------------------------------------------

*** tstop() called on d-16-5-1 at Mon Jan 22 17:25:29 2024
Module time:
	user time   =    3753.31 seconds =      62.56 minutes
	system time =      48.03 seconds =       0.80 minutes
	total time  =        374 seconds =       6.23 minutes
Total time:
	user time   =    3753.31 seconds =      62.56 minutes
	system time =      48.03 seconds =       0.80 minutes
	total time  =        374 seconds =       6.23 minutes

  //>>>>>>>>>>>>>>>>>>>>>>>>>>>>>>>>>>>//
  //            Monomer A HF           //
  //<<<<<<<<<<<<<<<<<<<<<<<<<<<<<<<<<<<//

   => Libint2 <=

    Primary   basis highest AM E, G, H:  7, 7, 4
    Auxiliary basis highest AM E, G, H:  7, 7, 5
    Onebody   basis highest AM E, G, H:  7, 7, 5
    Solid Harmonics ordering:            gaussian

*** tstart() called on d-16-5-1
*** at Mon Jan 22 17:25:29 2024

   => Loading Basis Set <=

    Name: JUN-CC-PVDZ
    Role: ORBITAL
    Keyword: BASIS
    atoms 1-2, 4-5, 10, 17-70 entry C          line   164 file /home/gridsan/tfroembgen/.conda/envs/psi4test/share/psi4/basis/jun-cc-pvdz.gbs 
    atoms 3, 6                entry N          line   198 file /home/gridsan/tfroembgen/.conda/envs/psi4test/share/psi4/basis/jun-cc-pvdz.gbs 
    atoms 7-9, 11-16, 71-88   entry H          line    36 file /home/gridsan/tfroembgen/.conda/envs/psi4test/share/psi4/basis/jun-cc-pvdz.gbs 


         ---------------------------------------------------------
                                   SCF
               by Justin Turney, Rob Parrish, Andy Simmonett
                          and Daniel G. A. Smith
                              RHF Reference
                       12 Threads,  30517 MiB Core
         ---------------------------------------------------------

  ==> Geometry <==

    Molecular point group: c1
    Full point group: C1

    Geometry (in Angstrom), charge = 1, multiplicity = 1:

       Center              X                  Y                   Z               Mass       
    ------------   -----------------  -----------------  -----------------  -----------------
         C            0.680066520158    -1.215933861162     6.815932039550    12.000000000000
         C           -0.680504479842    -1.215549861162     6.813904039550    12.000000000000
         N           -1.085635479842     0.102774138838     6.812906039550    14.003074004430
         C            0.000107520158     0.884175138838     6.809630039550    12.000000000000
         C           -2.477365479842     0.570753138838     6.763500039550    12.000000000000
         N            1.085221520158     0.102774138838     6.812906039550    14.003074004430
         H            1.385145520158    -2.033372861162     6.823760039550     1.007825032230
         H           -1.385302479842    -2.033218861162     6.814094039550     1.007825032230
         H           -0.000009479842     1.965264138838     6.807883039550     1.007825032230
         C            2.478116520158     0.567872138838     6.829798039550    12.000000000000
         H            2.490591520158     1.658125138838     6.802453039550     1.007825032230
         H            2.967027520158     0.220696138838     7.743244039550     1.007825032230
         H            3.001427520158     0.176400138838     5.954315039550     1.007825032230
         H           -2.857359479842     0.490794138838     5.741429039550     1.007825032230
         H           -3.082679479842    -0.042310861162     7.433584039550     1.007825032230
         H           -2.518128479842     1.610701138838     7.090484039550     1.007825032230
      Gh(C)           1.225311895423     0.707533799757    -0.985972333167    12.000000000000
      Gh(C)           1.225323856051    -0.707543383733    -0.998303142737    12.000000000000
      Gh(C)          -0.000006153932     1.414961424928    -0.998836766258    12.000000000000
      Gh(C)           2.456448753949     1.418323398016    -0.983085475767    12.000000000000
      Gh(C)           0.000010827279    -1.414980987797    -0.988637208933    12.000000000000
      Gh(C)          -1.225300948908     0.707540884822    -0.983720812844    12.000000000000
      Gh(C)           2.456437755320    -1.418327793043    -1.000548299594    12.000000000000
      Gh(C)          -0.000001332978     2.836796542119    -1.001240316392    12.000000000000
      Gh(C)           3.681826697470     0.709313466839    -1.000199509796    12.000000000000
      Gh(C)           2.455120048865     2.834219172327    -1.000302066757    12.000000000000
      Gh(C)           3.681821105219    -0.709338328591    -0.984127025778    12.000000000000
      Gh(C)          -1.225313598688    -0.707532004706    -0.997230381310    12.000000000000
      Gh(C)           1.226699581202     3.543464994832    -0.983942993847    12.000000000000
      Gh(C)           0.000004784858    -2.836786628398    -0.983789041312    12.000000000000
      Gh(C)          -2.456436032848     1.418312429123    -0.983685416998    12.000000000000
      Gh(C)           2.455123417779    -2.834234517751    -0.984278934145    12.000000000000
      Gh(C)          -1.226714364589     3.543464574588    -0.983839660627    12.000000000000
      Gh(C)           4.914517295202     1.427168383327    -0.993718826766    12.000000000000
      Gh(C)           3.693150191476     3.542790803383    -0.993669027130    12.000000000000
      Gh(C)          -2.456437600068    -1.418317770001    -1.000573337718    12.000000000000
      Gh(C)           1.226704841943    -3.543478731069    -0.999913124596    12.000000000000
      Gh(C)          -2.455125398508     2.834212173472    -1.000295690410    12.000000000000
      Gh(C)           4.914524380782    -1.427191399106    -0.990746084032    12.000000000000
      Gh(C)           1.221424613699     4.970129576098    -0.990607649772    12.000000000000
      Gh(C)           4.893008229321     2.825183510864    -0.992502158408    12.000000000000
      Gh(C)          -1.226697008489    -3.543475486239    -0.999645920187    12.000000000000
      Gh(C)          -3.681818976526     0.709320477570    -1.000186829316    12.000000000000
      Gh(C)           3.693147101150    -3.542805830553    -0.990628193471    12.000000000000
      Gh(C)          -1.221432251994     4.970123808701    -0.990424154399    12.000000000000
      Gh(C)           6.134770972926     0.680543457943    -0.992949052217    12.000000000000
      Gh(C)           3.656788880610     4.972948754405    -0.992760389347    12.000000000000
      Gh(C)          -2.455126907733    -2.834219582223    -0.984523291943    12.000000000000
      Gh(C)          -3.681819179061    -0.709330192631    -0.984009404199    12.000000000000
      Gh(C)           4.893012617914    -2.825204594794    -0.991891006512    12.000000000000
      Gh(C)          -0.000001073113     5.650442876870    -0.991655463106    12.000000000000
      Gh(C)           6.134775112332    -0.680559343237    -0.991683731701    12.000000000000
      Gh(C)           2.478131482856     5.653572262169    -0.991471609698    12.000000000000
      Gh(C)           1.221422404738    -4.970131544095    -0.993407146795    12.000000000000
      Gh(C)          -3.693162383965     3.542792465030    -0.993503519671    12.000000000000
      Gh(C)          -1.221428520945    -4.970122792758    -0.993519908627    12.000000000000
      Gh(C)          -4.914521807942     1.427170957833    -0.993641881759    12.000000000000
      Gh(C)           3.656787019679    -4.972959715401    -0.991309888813    12.000000000000
      Gh(C)          -2.478138530106     5.653569933366    -0.991187084689    12.000000000000
      Gh(C)          -3.693141738564    -3.542794708141    -0.990744319627    12.000000000000
      Gh(C)          -4.914512483053    -1.427185489190    -0.990711386858    12.000000000000
      Gh(C)          -0.000006008926    -5.650442776176    -0.992050967228    12.000000000000
      Gh(C)          -4.893020484101     2.825184109757    -0.992512240268    12.000000000000
      Gh(C)           2.478125993298    -5.653578033051    -0.992400489606    12.000000000000
      Gh(C)          -3.656798710258     4.972951692879    -0.992583708973    12.000000000000
      Gh(C)          -4.892999478856    -2.825196256222    -0.992045042210    12.000000000000
      Gh(C)          -2.478128498083    -5.653570659169    -0.992675677253    12.000000000000
      Gh(C)          -6.134770503331     0.680544277094    -0.992974603919    12.000000000000
      Gh(C)          -3.656788833189    -4.972948512133    -0.991524176630    12.000000000000
      Gh(C)          -6.134765042913    -0.680558404644    -0.991704207496    12.000000000000
      Gh(H)           5.835288495816     3.369271405792    -0.988142832745     1.007825032230
      Gh(H)           7.073859172747     1.228212759737    -0.992487408823     1.007825032230
      Gh(H)           4.600663264174     5.512376313291    -0.992255188596     1.007825032230
      Gh(H)           5.835283387305    -3.369310545891    -0.996345473827     1.007825032230
      Gh(H)          -0.000012151306     6.738526184974    -0.996004708114     1.007825032230
      Gh(H)           7.073861171831    -1.228231431906    -0.992192469795     1.007825032230
      Gh(H)           2.473313731799     6.740679802232    -0.991938330628     1.007825032230
      Gh(H)           4.600668491381    -5.512380618338    -0.991719885982     1.007825032230
      Gh(H)          -2.473318680537     6.740677230444    -0.991636984003     1.007825032230
      Gh(H)          -0.000010268228    -6.738532665614    -0.987521282243     1.007825032230
      Gh(H)          -5.835301914343     3.369266461134    -0.988006810597     1.007825032230
      Gh(H)           2.473307923831    -6.740689863591    -0.991830159181     1.007825032230
      Gh(H)          -4.600674841208     5.512373537441    -0.992089860272     1.007825032230
      Gh(H)          -5.835279506835    -3.369293452942    -0.996624779708     1.007825032230
      Gh(H)          -2.473300347440    -6.740683567302    -0.992279475725     1.007825032230
      Gh(H)          -7.073857766768     1.228215983678    -0.992571400304     1.007825032230
      Gh(H)          -4.600673786085    -5.512367158949    -0.991892194005     1.007825032230
      Gh(H)          -7.073856934409    -1.228225121139    -0.992287326261     1.007825032230

  Running in c1 symmetry.

  Rotational constants: A =      0.00131  B =      0.00130  C =      0.00109 [cm^-1]
  Rotational constants: A =     39.38696  B =     38.86699  C =     32.56831 [MHz]
  Nuclear repulsion =  306.774908447733026

  Charge       = 1
  Multiplicity = 1
  Electrons    = 52
  Nalpha       = 26
  Nbeta        = 26

  ==> Algorithm <==

  SCF Algorithm Type is DF.
  DIIS enabled.
  MOM disabled.
  Fractional occupation disabled.
  Guess Type is SAD.
  Energy threshold   = 1.00e-08
  Density threshold  = 1.00e-08
  Integral threshold = 1.00e-12

  ==> Primary Basis <==

  Basis Set: JUN-CC-PVDZ
    Blend: JUN-CC-PVDZ
    Number of shells: 569
    Number of basis functions: 1233
    Number of Cartesian functions: 1294
    Spherical Harmonics?: true
    Max angular momentum: 2

   => Loading Basis Set <=

    Name: (JUN-CC-PVDZ AUX)
    Role: JKFIT
    Keyword: DF_BASIS_SCF
    atoms 1-2, 4-5, 10, 17-70 entry C          line   146 file /home/gridsan/tfroembgen/.conda/envs/psi4test/share/psi4/basis/jun-cc-pvdz-jkfit.gbs 
    atoms 3, 6                entry N          line   202 file /home/gridsan/tfroembgen/.conda/envs/psi4test/share/psi4/basis/jun-cc-pvdz-jkfit.gbs 
    atoms 7-9, 11-16, 71-88   entry H          line    70 file /home/gridsan/tfroembgen/.conda/envs/psi4test/share/psi4/basis/jun-cc-pvdz-jkfit.gbs 

  ==> Integral Setup <==

  ==> DiskDFJK: Density-Fitted J/K Matrices <==

    J tasked:                  Yes
    K tasked:                  Yes
    wK tasked:                  No
    OpenMP threads:             12
    Integrals threads:          12
    Memory [MiB]:            22888
    Algorithm:                Core
    Integral Cache:           LOAD
    Schwarz Cutoff:          1E-12
    Fitting Condition:       1E-10

   => Auxiliary Basis Set <=

  Basis Set: (JUN-CC-PVDZ AUX)
    Blend: JUN-CC-PVDZ-JKFIT
    Number of shells: 1890
    Number of basis functions: 5440
    Number of Cartesian functions: 6226
    Spherical Harmonics?: true
    Max angular momentum: 3

  Minimum eigenvalue in the overlap matrix is 8.3980197082E-10.
  Reciprocal condition number of the overlap matrix is 3.7566274817E-11.
    Using canonical orthogonalization.
  Overall, 14 of 1233 possible MOs eliminated.


  ==> Pre-Iterations <==

  SCF Guess: Superposition of Atomic Densities via on-the-fly atomic UHF (no occupation information).

   -------------------------
    Irrep   Nso     Nmo    
   -------------------------
     A       1233    1219 
   -------------------------
    Total    1233    1219
   -------------------------

  ==> Iterations <==

                           Total Energy        Delta E     RMS |[F,P]|

   @DF-RHF iter SAD:  -303.36533956450438   -3.03365e+02   0.00000e+00 
   @DF-RHF iter   1:  -303.16941176152136    1.95928e-01   3.44012e-04 ADIIS/DIIS
   @DF-RHF iter   2:  -303.28373694900006   -1.14325e-01   1.15853e-04 ADIIS/DIIS
   @DF-RHF iter   3:  -303.29518121595635   -1.14443e-02   4.53142e-05 DIIS
   @DF-RHF iter   4:  -303.29708216475967   -1.90095e-03   9.88805e-06 DIIS
   @DF-RHF iter   5:  -303.29718757903697   -1.05414e-04   2.41114e-06 DIIS
   @DF-RHF iter   6:  -303.29719683070664   -9.25167e-06   6.54356e-07 DIIS
   @DF-RHF iter   7:  -303.29719790351714   -1.07281e-06   3.32162e-07 DIIS
   @DF-RHF iter   8:  -303.29719815587220   -2.52355e-07   1.33626e-07 DIIS
   @DF-RHF iter   9:  -303.29719820430950   -4.84373e-08   3.37387e-08 DIIS
   @DF-RHF iter  10:  -303.29719820713905   -2.82955e-09   1.26925e-08 DIIS
   @DF-RHF iter  11:  -303.29719820738580   -2.46757e-10   2.99767e-09 DIIS
  Energy and wave function converged.


  ==> Post-Iterations <==

    Orbital Energies [Eh]
    ---------------------

    Doubly Occupied:                                                      

       1A    -15.834676     2A    -15.834145     3A    -11.529560  
       4A    -11.459860     5A    -11.458306     6A    -11.449668  
       7A    -11.449554     8A     -1.578246     9A     -1.433831  
      10A     -1.238672    11A     -1.189312    12A     -1.118868  
      13A     -1.022540    14A     -0.996972    15A     -0.917050  
      16A     -0.850528    17A     -0.816262    18A     -0.813209  
      19A     -0.790135    20A     -0.786229    21A     -0.781779  
      22A     -0.729703    23A     -0.725783    24A     -0.717099  
      25A     -0.596307    26A     -0.523868  

    Virtual:                                                              

      27A     -0.072590    28A     -0.064624    29A     -0.056456  
      30A     -0.051000    31A     -0.038425    32A     -0.036823  
      33A     -0.030749    34A     -0.028855    35A     -0.028288  
      36A     -0.027020    37A     -0.024076    38A     -0.014145  
      39A     -0.013334    40A     -0.012394    41A     -0.006992  
      42A     -0.004699    43A     -0.002028    44A     -0.001664  
      45A     -0.000770    46A      0.003519    47A      0.004544  
      48A      0.010037    49A      0.013200    50A      0.015351  
      51A      0.019919    52A      0.019998    53A      0.020701  
      54A      0.022246    55A      0.025224    56A      0.025736  
      57A      0.028770    58A      0.030790    59A      0.035735  
      60A      0.037508    61A      0.041143    62A      0.041252  
      63A      0.041533    64A      0.046489    65A      0.050527  
      66A      0.051772    67A      0.053837    68A      0.056615  
      69A      0.056936    70A      0.057322    71A      0.059788  
      72A      0.064105    73A      0.065642    74A      0.067270  
      75A      0.068807    76A      0.069872    77A      0.071364  
      78A      0.072790    79A      0.074970    80A      0.076446  
      81A      0.076826    82A      0.078193    83A      0.080129  
      84A      0.083490    85A      0.084322    86A      0.085100  
      87A      0.085939    88A      0.086453    89A      0.089608  
      90A      0.092405    91A      0.092592    92A      0.095491  
      93A      0.096121    94A      0.096450    95A      0.097224  
      96A      0.099927    97A      0.101411    98A      0.103003  
      99A      0.103404   100A      0.103800   101A      0.105107  
     102A      0.107302   103A      0.116313   104A      0.117802  
     105A      0.119292   106A      0.119382   107A      0.120972  
     108A      0.121924   109A      0.122433   110A      0.122478  
     111A      0.123843   112A      0.127377   113A      0.127453  
     114A      0.128573   115A      0.128838   116A      0.130006  
     117A      0.132166   118A      0.133319   119A      0.134884  
     120A      0.135482   121A      0.140296   122A      0.142927  
     123A      0.144288   124A      0.145746   125A      0.147092  
     126A      0.148645   127A      0.150360   128A      0.150669  
     129A      0.150691   130A      0.152626   131A      0.153129  
     132A      0.156327   133A      0.156788   134A      0.158203  
     135A      0.158520   136A      0.162115   137A      0.167288  
     138A      0.169235   139A      0.169397   140A      0.171612  
     141A      0.171701   142A      0.173892   143A      0.174271  
     144A      0.174435   145A      0.177364   146A      0.179131  
     147A      0.179893   148A      0.181718   149A      0.183394  
     150A      0.186079   151A      0.187944   152A      0.188350  
     153A      0.188439   154A      0.189148   155A      0.190010  
     156A      0.190300   157A      0.192931   158A      0.193465  
     159A      0.196862   160A      0.198603   161A      0.199377  
     162A      0.200747   163A      0.201000   164A      0.201796  
     165A      0.204873   166A      0.209466   167A      0.217109  
     168A      0.217344   169A      0.218345   170A      0.220600  
     171A      0.223308   172A      0.224457   173A      0.224592  
     174A      0.225578   175A      0.225721   176A      0.226170  
     177A      0.229472   178A      0.230055   179A      0.230766  
     180A      0.232990   181A      0.233239   182A      0.234742  
     183A      0.235356   184A      0.235500   185A      0.237920  
     186A      0.238909   187A      0.243906   188A      0.246392  
     189A      0.246594   190A      0.248044   191A      0.249752  
     192A      0.251821   193A      0.258076   194A      0.258166  
     195A      0.262231   196A      0.262583   197A      0.263377  
     198A      0.267029   199A      0.269541   200A      0.272452  
     201A      0.273571   202A      0.273854   203A      0.276684  
     204A      0.277235   205A      0.279392   206A      0.279640  
     207A      0.280456   208A      0.291682   209A      0.292111  
     210A      0.293965   211A      0.294125   212A      0.294881  
     213A      0.297398   214A      0.298092   215A      0.301176  
     216A      0.301808   217A      0.303149   218A      0.303351  
     219A      0.307993   220A      0.309946   221A      0.311370  
     222A      0.312020   223A      0.314379   224A      0.315348  
     225A      0.317961   226A      0.318004   227A      0.320556  
     228A      0.320942   229A      0.322256   230A      0.322824  
     231A      0.327215   232A      0.327438   233A      0.327777  
     234A      0.334649   235A      0.336655   236A      0.340430  
     237A      0.343324   238A      0.347239   239A      0.349446  
     240A      0.350915   241A      0.351099   242A      0.353503  
     243A      0.354085   244A      0.357776   245A      0.365754  
     246A      0.366170   247A      0.370463   248A      0.371086  
     249A      0.371602   250A      0.375809   251A      0.377470  
     252A      0.377502   253A      0.377652   254A      0.377727  
     255A      0.378483   256A      0.380550   257A      0.381396  
     258A      0.384674   259A      0.391961   260A      0.392025  
     261A      0.393437   262A      0.393780   263A      0.395564  
     264A      0.396772   265A      0.400614   266A      0.401218  
     267A      0.401769   268A      0.402182   269A      0.402538  
     270A      0.405704   271A      0.411547   272A      0.413265  
     273A      0.413743   274A      0.414602   275A      0.416229  
     276A      0.419165   277A      0.419657   278A      0.419983  
     279A      0.423493   280A      0.423910   281A      0.428872  
     282A      0.430644   283A      0.431636   284A      0.433370  
     285A      0.433650   286A      0.435610   287A      0.436387  
     288A      0.437954   289A      0.439315   290A      0.441582  
     291A      0.442238   292A      0.444683   293A      0.449591  
     294A      0.453228   295A      0.454753   296A      0.456186  
     297A      0.456907   298A      0.463538   299A      0.463570  
     300A      0.468977   301A      0.472693   302A      0.473159  
     303A      0.473292   304A      0.474146   305A      0.476591  
     306A      0.477355   307A      0.477821   308A      0.479892  
     309A      0.488243   310A      0.489376   311A      0.490069  
     312A      0.490789   313A      0.492148   314A      0.492353  
     315A      0.494052   316A      0.503727   317A      0.506118  
     318A      0.511459   319A      0.511871   320A      0.513066  
     321A      0.519779   322A      0.519889   323A      0.521783  
     324A      0.522013   325A      0.522443   326A      0.524070  
     327A      0.526301   328A      0.526440   329A      0.531983  
     330A      0.544063   331A      0.544339   332A      0.544776  
     333A      0.544797   334A      0.546401   335A      0.546417  
     336A      0.555745   337A      0.555799   338A      0.562332  
     339A      0.562405   340A      0.563557   341A      0.565514  
     342A      0.566093   343A      0.566354   344A      0.573679  
     345A      0.577855   346A      0.578473   347A      0.578737  
     348A      0.585337   349A      0.585577   350A      0.591159  
     351A      0.591576   352A      0.591814   353A      0.595301  
     354A      0.602850   355A      0.607037   356A      0.608316  
     357A      0.611498   358A      0.617658   359A      0.621484  
     360A      0.623706   361A      0.623789   362A      0.624999  
     363A      0.625155   364A      0.628552   365A      0.633517  
     366A      0.635296   367A      0.636084   368A      0.636867  
     369A      0.638419   370A      0.643144   371A      0.645821  
     372A      0.648044   373A      0.648493   374A      0.650981  
     375A      0.651708   376A      0.652483   377A      0.652782  
     378A      0.653453   379A      0.654833   380A      0.656533  
     381A      0.663181   382A      0.668635   383A      0.668710  
     384A      0.669535   385A      0.669720   386A      0.675328  
     387A      0.686122   388A      0.689776   389A      0.693964  
     390A      0.694229   391A      0.697807   392A      0.698925  
     393A      0.706287   394A      0.706346   395A      0.707790  
     396A      0.710344   397A      0.711315   398A      0.711347  
     399A      0.711822   400A      0.712095   401A      0.713531  
     402A      0.713735   403A      0.718980   404A      0.720447  
     405A      0.721222   406A      0.722680   407A      0.723282  
     408A      0.727669   409A      0.731346   410A      0.733386  
     411A      0.733495   412A      0.736234   413A      0.738665  
     414A      0.741428   415A      0.741617   416A      0.742188  
     417A      0.743196   418A      0.749191   419A      0.750681  
     420A      0.751823   421A      0.751998   422A      0.752761  
     423A      0.761630   424A      0.777939   425A      0.779774  
     426A      0.790287   427A      0.790405   428A      0.794622  
     429A      0.794676   430A      0.805911   431A      0.806040  
     432A      0.811992   433A      0.815232   434A      0.817618  
     435A      0.826440   436A      0.826472   437A      0.831705  
     438A      0.831774   439A      0.834955   440A      0.836522  
     441A      0.844108   442A      0.844144   443A      0.847478  
     444A      0.851155   445A      0.862460   446A      0.870088  
     447A      0.870138   448A      0.884603   449A      0.893485  
     450A      0.901332   451A      0.905360   452A      0.905412  
     453A      0.913914   454A      0.913939   455A      0.923068  
     456A      0.935775   457A      0.943526   458A      0.944921  
     459A      0.945002   460A      0.948907   461A      0.953935  
     462A      0.954863   463A      0.971480   464A      0.973201  
     465A      0.973277   466A      0.976991   467A      0.988612  
     468A      0.988766   469A      1.004394   470A      1.010910  
     471A      1.010940   472A      1.013593   473A      1.013734  
     474A      1.013995   475A      1.031425   476A      1.042615  
     477A      1.048015   478A      1.048191   479A      1.050842  
     480A      1.065465   481A      1.100052   482A      1.100180  
     483A      1.100446   484A      1.106561   485A      1.106680  
     486A      1.115041   487A      1.120586   488A      1.121778  
     489A      1.125559   490A      1.128186   491A      1.128297  
     492A      1.139015   493A      1.141945   494A      1.141972  
     495A      1.147703   496A      1.150477   497A      1.161247  
     498A      1.165360   499A      1.165388   500A      1.173270  
     501A      1.174899   502A      1.233223   503A      1.241190  
     504A      1.241203   505A      1.247038   506A      1.251411  
     507A      1.251514   508A      1.267115   509A      1.267255  
     510A      1.272565   511A      1.273985   512A      1.275071  
     513A      1.278634   514A      1.309216   515A      1.315857  
     516A      1.315911   517A      1.319641   518A      1.346232  
     519A      1.365926   520A      1.388125   521A      1.388580  
     522A      1.406744   523A      1.407047   524A      1.408459  
     525A      1.412204   526A      1.412440   527A      1.415012  
     528A      1.424440   529A      1.427755   530A      1.428529  
     531A      1.463202   532A      1.478035   533A      1.488941  
     534A      1.500057   535A      1.500311   536A      1.502508  
     537A      1.502835   538A      1.503798   539A      1.513683  
     540A      1.516804   541A      1.561828   542A      1.567737  
     543A      1.580653   544A      1.583530   545A      1.592558  
     546A      1.595921   547A      1.603796   548A      1.604841  
     549A      1.606804   550A      1.607720   551A      1.619254  
     552A      1.628192   553A      1.629074   554A      1.632344  
     555A      1.636846   556A      1.645362   557A      1.660956  
     558A      1.669535   559A      1.680021   560A      1.685897  
     561A      1.690688   562A      1.691823   563A      1.692613  
     564A      1.693244   565A      1.694644   566A      1.697073  
     567A      1.704258   568A      1.706612   569A      1.707081  
     570A      1.712264   571A      1.718172   572A      1.728761  
     573A      1.733304   574A      1.736133   575A      1.737276  
     576A      1.739308   577A      1.742790   578A      1.743395  
     579A      1.748200   580A      1.754655   581A      1.755876  
     582A      1.757315   583A      1.760662   584A      1.769683  
     585A      1.770585   586A      1.774750   587A      1.774960  
     588A      1.775219   589A      1.777663   590A      1.778467  
     591A      1.778560   592A      1.786334   593A      1.787588  
     594A      1.788141   595A      1.789323   596A      1.791546  
     597A      1.801945   598A      1.805725   599A      1.806012  
     600A      1.806341   601A      1.810370   602A      1.816404  
     603A      1.820562   604A      1.822202   605A      1.822664  
     606A      1.827097   607A      1.830325   608A      1.831796  
     609A      1.833631   610A      1.839220   611A      1.839879  
     612A      1.843663   613A      1.849279   614A      1.851367  
[...]
     793A      1.644010   794A      1.649813   795A      1.660934  
     796A      1.661052   797A      1.661622   798A      1.667422  
     799A      1.672206   800A      1.676304   801A      1.676349  
     802A      1.676765   803A      1.676792   804A      1.677019  
     805A      1.682159   806A      1.686624   807A      1.686676  
     808A      1.696043   809A      1.697167   810A      1.699290  
     811A      1.699333   812A      1.700685   813A      1.704746  
     814A      1.704819   815A      1.715756   816A      1.715769  
     817A      1.741686   818A      1.751397   819A      1.756812  
     820A      1.760264   821A      1.760296   822A      1.761064  
     823A      1.761726   824A      1.776723   825A      1.776749  
     826A      1.786172   827A      1.791483   828A      1.791533  
     829A      1.799024   830A      1.804802   831A      1.809949  
     832A      1.816577   833A      1.816717   834A      1.816739  
     835A      1.818097   836A      1.824646   837A      1.824758  
     838A      1.829783   839A      1.830862   840A      1.834178  
     841A      1.836539   842A      1.842401   843A      1.842737  
     844A      1.860561   845A      1.860771   846A      1.860908  
     847A      1.860953   848A      1.864066   849A      1.866580  
     850A      1.869594   851A      1.872254   852A      1.880159  
     853A      1.880233   854A      1.890030   855A      1.896123  
     856A      1.896147   857A      1.897024   858A      1.899442  
     859A      1.902946   860A      1.903090   861A      1.908613  
     862A      1.908761   863A      1.913959   864A      1.914172  
     865A      1.917612   866A      1.917675   867A      1.917958  
     868A      1.919248   869A      1.921970   870A      1.922081  
     871A      1.940488   872A      1.941518   873A      1.941746  
     874A      1.942067   875A      1.944185   876A      1.946531  
     877A      1.946582   878A      1.954018   879A      1.954369  
     880A      1.954698   881A      1.954757   882A      1.957998  
     883A      1.970176   884A      1.982732   885A      1.983030  
     886A      1.989392   887A      1.992155   888A      1.997108  
     889A      1.998584   890A      1.998645   891A      2.003767  
     892A      2.008108   893A      2.012351   894A      2.012640  
     895A      2.020401   896A      2.027327   897A      2.027822  
     898A      2.029816   899A      2.029934   900A      2.030047  
     901A      2.031216   902A      2.031327   903A      2.033625  
     904A      2.038381   905A      2.047740   906A      2.048425  
     907A      2.051786   908A      2.052174   909A      2.057228  
     910A      2.058004   911A      2.059681   912A      2.060013  
     913A      2.060620   914A      2.068349   915A      2.070279  
     916A      2.071251   917A      2.071694   918A      2.075989  
     919A      2.076587   920A      2.080232   921A      2.082981  
     922A      2.084294   923A      2.087197   924A      2.091113  
     925A      2.093745   926A      2.094539   927A      2.095412  
     928A      2.096851   929A      2.100536   930A      2.100585  
     931A      2.105961   932A      2.108249   933A      2.108391  
     934A      2.109292   935A      2.109876   936A      2.111197  
     937A      2.113237   938A      2.114834   939A      2.119197  
     940A      2.119325   941A      2.120410   942A      2.120635  
     943A      2.124237   944A      2.126101   945A      2.126302  
     946A      2.133168   947A      2.134271   948A      2.134611  
     949A      2.135207   950A      2.135920   951A      2.136440  
     952A      2.143173   953A      2.143216   954A      2.155266  
     955A      2.159113   956A      2.159639   957A      2.161432  
     958A      2.162814   959A      2.162957   960A      2.171279  
     961A      2.178358   962A      2.178438   963A      2.187875  
     964A      2.190335   965A      2.190999   966A      2.192488  
     967A      2.193771   968A      2.195780   969A      2.195896  
     970A      2.197841   971A      2.198446   972A      2.213948  
     973A      2.219655   974A      2.220273   975A      2.220342  
     976A      2.227711   977A      2.228107   978A      2.228565  
     979A      2.228772   980A      2.243280   981A      2.243595  
     982A      2.243876   983A      2.244365   984A      2.247099  
     985A      2.247504   986A      2.260050   987A      2.260175  
     988A      2.270113   989A      2.270143   990A      2.270656  
     991A      2.272016   992A      2.272059   993A      2.275000  
     994A      2.281052   995A      2.297228   996A      2.300245  
     997A      2.306662   998A      2.310357   999A      2.312088  
    1000A      2.312616  1001A      2.320276  1002A      2.322295  
    1003A      2.330930  1004A      2.330977  1005A      2.331094  
    1006A      2.333849  1007A      2.335096  1008A      2.338769  
    1009A      2.350785  1010A      2.351405  1011A      2.352405  
    1012A      2.352427  1013A      2.366274  1014A      2.366415  
    1015A      2.374595  1016A      2.379376  1017A      2.384418  
    1018A      2.415819  1019A      2.423993  1020A      2.424363  
    1021A      2.424390  1022A      2.436442  1023A      2.441012  
    1024A      2.441128  1025A      2.443856  1026A      2.448069  
    1027A      2.455713  1028A      2.469885  1029A      2.470146  
    1030A      2.472755  1031A      2.473041  1032A      2.477679  
    1033A      2.485401  1034A      2.485509  1035A      2.502283  
    1036A      2.506212  1037A      2.519176  1038A      2.529718  
    1039A      2.529838  1040A      2.543386  1041A      2.545317  
    1042A      2.545385  1043A      2.554310  1044A      2.554402  
    1045A      2.554784  1046A      2.559813  1047A      2.559820  
    1048A      2.572960  1049A      2.572995  1050A      2.574423  
    1051A      2.575167  1052A      2.576249  1053A      2.586205  
    1054A      2.586334  1055A      2.587218  1056A      2.589747  
    1057A      2.591393  1058A      2.606088  1059A      2.623372  
    1060A      2.623466  1061A      2.624944  1062A      2.631328  
    1063A      2.631758  1064A      2.633692  1065A      2.641153  
    1066A      2.641248  1067A      2.644575  1068A      2.650782  
    1069A      2.651117  1070A      2.651331  1071A      2.656838  
    1072A      2.660689  1073A      2.674948  1074A      2.682057  
    1075A      2.683112  1076A      2.683969  1077A      2.686770  
    1078A      2.701981  1079A      2.702318  1080A      2.712994  
    1081A      2.713002  1082A      2.718653  1083A      2.718678  
    1084A      2.722612  1085A      2.722850  1086A      2.735668  
    1087A      2.737970  1088A      2.747996  1089A      2.752246  
    1090A      2.752577  1091A      2.768966  1092A      2.777136  
    1093A      2.794434  1094A      2.794612  1095A      2.806697  
    1096A      2.815771  1097A      2.827091  1098A      2.827589  
    1099A      2.835173  1100A      2.851188  1101A      2.851774  
    1102A      2.856005  1103A      2.858298  1104A      2.859436  
    1105A      2.859557  1106A      2.866880  1107A      2.873822  
    1108A      2.890728  1109A      2.910285  1110A      2.917014  
    1111A      2.917075  1112A      2.923092  1113A      2.923723  
    1114A      2.933528  1115A      2.933632  1116A      2.945016  
    1117A      2.949599  1118A      2.949629  1119A      2.962766  
    1120A      2.970748  1121A      2.993440  1122A      3.006719  
    1123A      3.006779  1124A      3.008118  1125A      3.011853  
    1126A      3.029306  1127A      3.037459  1128A      3.064147  
    1129A      3.064170  1130A      3.070594  1131A      3.070621  
    1132A      3.109344  1133A      3.110173  1134A      3.127501  
    1135A      3.129471  1136A      3.129760  1137A      3.137439  
    1138A      3.142624  1139A      3.146213  1140A      3.146304  
    1141A      3.146964  1142A      3.149033  1143A      3.149111  
    1144A      3.157653  1145A      3.158115  1146A      3.165664  
    1147A      3.166179  1148A      3.191642  1149A      3.211139  
    1150A      3.218361  1151A      3.237267  1152A      3.272184  
    1153A      3.276912  1154A      3.277059  1155A      3.281714  
    1156A      3.281911  1157A      3.285867  1158A      3.302211  
    1159A      3.316269  1160A      3.390797  1161A      3.416302  
    1162A      3.416850  1163A      3.442763  1164A      3.481371  
    1165A      3.483962  1166A      3.522923  1167A      3.549058  
    1168A      3.567624  1169A      3.577078  1170A      3.579043  
    1171A      3.593804  1172A      3.626464  1173A      3.628451  
    1174A      3.643604  1175A      3.662778  1176A      3.667307  
    1177A      3.756631  1178A      3.769210  1179A      3.782665  
    1180A      3.783643  1181A      3.814930  1182A      3.866726  
    1183A      3.870735  1184A      3.870738  1185A      3.913063  
    1186A      3.913188  1187A      3.956657  1188A      3.976890  
    1189A      4.010847  1190A      4.032683  1191A      4.044551  
    1192A      4.080676  1193A      4.204603  1194A      4.206805  
    1195A      4.345047  1196A      4.362001  1197A      4.480483  
    1198A      4.733327  1199A      4.771648  1200A      4.827574  
    1201A      4.844967  1202A      4.934499  1203A      5.047039  
    1204A      5.054953  1205A      5.063977  1206A      5.108900  
    1207A      5.123557  1208A      5.389076  1209A      5.420084  
    1210A      5.731479  1211A      5.748798  1212A      6.065909  
    1213A     18.199014  1214A     18.451151  1215A     18.468888  
    1216A     18.556951  1217A     18.831057  1218A     25.339401  
    1219A     25.373871  

    Final Occupation by Irrep:
              A 
    DOCC [   171 ]
    NA   [   171 ]
    NB   [   171 ]

  @DF-RHF Final Energy: -2055.89165494058398

   => Energetics <=

    Nuclear Repulsion Energy =           6452.5568002797772351
    One-Electron Energy =              -15636.4258802479598671
    Two-Electron Energy =                7127.9774250275986560
    Total Energy =                      -2055.8916549405839760

Computation Completed


Properties will be evaluated at   0.000000,   0.000000,   0.000000 [a0]

Properties computed using the SCF density matrix


 Multipole Moments:

 ------------------------------------------------------------------------------------
     Multipole            Electronic (a.u.)      Nuclear  (a.u.)        Total (a.u.)
 ------------------------------------------------------------------------------------

 L = 1.  Multiply by 2.5417464519 to convert [e a0] to [Debye]
 Dipole X            :          0.0000981           -0.0000085            0.0000896
 Dipole Y            :          0.0028644           -0.0028843           -0.0000199
 Dipole Z            :        641.1875566         -641.1885531           -0.0009966
 Magnitude           :                                                    0.0010008

 ------------------------------------------------------------------------------------

*** tstop() called on d-16-5-1 at Mon Jan 22 17:42:43 2024
Module time:
	user time   =    2501.44 seconds =      41.69 minutes
	system time =      59.99 seconds =       1.00 minutes
	total time  =        622 seconds =      10.37 minutes
Total time:
	user time   =    7906.93 seconds =     131.78 minutes
	system time =     142.33 seconds =       2.37 minutes
	total time  =       1408 seconds =      23.47 minutes
  Constructing Basis Sets for SAPT...

   => Loading Basis Set <=

    Name: (JUN-CC-PVDZ AUX)
    Role: RIFIT
    Keyword: DF_BASIS_SAPT
    atoms 1-2, 4-5, 10, 17-70 entry C          line   100 file /home/gridsan/tfroembgen/.conda/envs/psi4test/share/psi4/basis/jun-cc-pvdz-ri.gbs 
    atoms 3, 6                entry N          line   144 file /home/gridsan/tfroembgen/.conda/envs/psi4test/share/psi4/basis/jun-cc-pvdz-ri.gbs 
    atoms 7-9, 11-16, 71-88   entry H          line    30 file /home/gridsan/tfroembgen/.conda/envs/psi4test/share/psi4/basis/jun-cc-pvdz-ri.gbs 

   => Loading Basis Set <=

    Name: (JUN-CC-PVDZ AUX)
    Role: JKFIT
    Keyword: DF_BASIS_ELST
    atoms 1-2, 4-5, 10, 17-70 entry C          line   146 file /home/gridsan/tfroembgen/.conda/envs/psi4test/share/psi4/basis/jun-cc-pvdz-jkfit.gbs 
    atoms 3, 6                entry N          line   202 file /home/gridsan/tfroembgen/.conda/envs/psi4test/share/psi4/basis/jun-cc-pvdz-jkfit.gbs 
    atoms 7-9, 11-16, 71-88   entry H          line    70 file /home/gridsan/tfroembgen/.conda/envs/psi4test/share/psi4/basis/jun-cc-pvdz-jkfit.gbs 


  //>>>>>>>>>>>>>>>>>>>>>>>>>>>>>>>>>>>//
  //               SSAPT0              //
  //<<<<<<<<<<<<<<<<<<<<<<<<<<<<<<<<<<<//


*** tstart() called on d-16-5-1
*** at Mon Jan 22 17:42:44 2024

        SAPT0  
    Ed Hohenstein
     6 June 2009

      Orbital Information
  --------------------------
    NSO        =      1233
    NMO        =      1219
    NRI        =      4343
    NRI (Elst) =      5440
    NOCC A     =        26
    NOCC B     =       171
    FOCC A     =         7
    FOCC B     =        54
    NVIR A     =      1193
    NVIR B     =      1048

    Elst10,r            =    -0.005769098777 [Eh]
    Exch10              =    -0.000000132894 [Eh]
    Exch10 (S^2)        =    -0.000000132894 [Eh]

    Iter     Energy [mEh]          dE [mEh]         Residual      Time [s]
       1      -0.01073417       0.010734174       0.907142873           301
       2      -0.00971935      -0.001014823       0.185326328           547
       3      -0.01047277       0.000753419       0.046032692           790
       4      -0.01049187       0.000019102       0.014427741          1027
       5      -0.01047125      -0.000020619       0.003803619          1223
       6      -0.01047163       0.000000379       0.002110040          1426
       7      -0.01047271       0.000001075       0.000828109          1586
       8      -0.01047273       0.000000025       0.000302759          1806
       9      -0.01047263      -0.000000101       0.000081988          2015
      10      -0.01047261      -0.000000019       0.000018104          2207
      11      -0.01047262       0.000000007       0.000006517          2479
      12      -0.01047262       0.000000002       0.000002002          2855
      13      -0.01047262      -0.000000001       0.000000739          3018

    CHF Iterations converged


    Iter     Energy [mEh]          dE [mEh]         Residual      Time [s]
       1      -1.87754276       1.877542758      22.459127934           344
       2      -1.28727984      -0.590262918       2.707090786           716
       3      -1.29301348       0.005733637       1.051261822           966
       4      -1.32449580       0.031482327       0.238422692          1095
       5      -1.32587907       0.001383262       0.065349979          1195
       6      -1.32522893      -0.000650133       0.029906616          1216
       7      -1.32502741      -0.000201521       0.013561887          1248
       8      -1.32513708       0.000109666       0.009817965          1270
       9      -1.32517306       0.000035981       0.005891909          1290
      10      -1.32514389      -0.000029173       0.003439659          1312
      11      -1.32513452      -0.000009365       0.001619335          1339
      12      -1.32513815       0.000003631       0.000725914          1365
      13      -1.32514066       0.000002508       0.000286640          1386
      14      -1.32514038      -0.000000277       0.000135222          1408
      15      -1.32513992      -0.000000462       0.000076051          1437
      16      -1.32513981      -0.000000108       0.000036286          1516
      17      -1.32513998       0.000000169       0.000014150          1600
      18      -1.32513998       0.000000001       0.000005567          1619
      19      -1.32513997      -0.000000016       0.000002973          1648
      20      -1.32513996      -0.000000005       0.000001092          1678
      21      -1.32513997       0.000000004       0.000000482          1710

    CHF Iterations converged

    Ind20,r (A<-B)      =    -0.000010472621 [Eh]
    Ind20,r (B<-A)      =    -0.001325139967 [Eh]
    Ind20,r             =    -0.001335612588 [Eh]
    Exch-Ind20,r (A<-B) =     0.000000012387 [Eh]
    Exch-Ind20,r (B<-A) =     0.000000065340 [Eh]
    Exch-Ind20,r        =     0.000000077727 [Eh]
    Disp20              =    -0.000711081075 [Eh]
    Disp20 (SS)         =    -0.000355540537 [Eh]
    Disp20 (OS)         =    -0.000355540537 [Eh]
    Exch-Disp20         =     0.000000028791 [Eh]
    Exch-Disp20 (SS)    =     0.000000021619 [Eh]
    Exch-Disp20 (OS)    =     0.000000007171 [Eh]

    SAPT Results 
  --------------------------------------------------------------------------------------------------------
    Electrostatics                 -5.76909878 [mEh]      -3.62016414 [kcal/mol]     -15.14676675 [kJ/mol]
      Elst10,r                     -5.76909878 [mEh]      -3.62016414 [kcal/mol]     -15.14676675 [kJ/mol]

    Exchange                       -0.00013289 [mEh]      -0.00008339 [kcal/mol]      -0.00034891 [kJ/mol]
      Exch10                       -0.00013289 [mEh]      -0.00008339 [kcal/mol]      -0.00034891 [kJ/mol]
      Exch10(S^2)                  -0.00013289 [mEh]      -0.00008339 [kcal/mol]      -0.00034891 [kJ/mol]

    Induction                      -1.34916319 [mEh]      -0.84661268 [kcal/mol]      -3.54222746 [kJ/mol]
      Ind20,r                      -1.33561259 [mEh]      -0.83810955 [kcal/mol]      -3.50665037 [kJ/mol]
      Exch-Ind20,r                  0.00007773 [mEh]       0.00004877 [kcal/mol]       0.00020407 [kJ/mol]
      delta HF,r (2)               -0.01362832 [mEh]      -0.00855190 [kcal/mol]      -0.03578116 [kJ/mol]

    Dispersion                     -0.71105228 [mEh]      -0.44619204 [kcal/mol]      -1.86686751 [kJ/mol]
      Disp20                       -0.71108107 [mEh]      -0.44621011 [kcal/mol]      -1.86694311 [kJ/mol]
      Exch-Disp20                   0.00002879 [mEh]       0.00001807 [kcal/mol]       0.00007559 [kJ/mol]
      Disp20 (SS)                  -0.35554054 [mEh]      -0.22310506 [kcal/mol]      -0.93347155 [kJ/mol]
      Disp20 (OS)                  -0.35554054 [mEh]      -0.22310506 [kcal/mol]      -0.93347155 [kJ/mol]
      Exch-Disp20 (SS)              0.00002162 [mEh]       0.00001357 [kcal/mol]       0.00005676 [kJ/mol]
      Exch-Disp20 (OS)              0.00000717 [mEh]       0.00000450 [kcal/mol]       0.00001883 [kJ/mol]

  Total HF                         -7.11839486 [mEh]      -4.46686021 [kcal/mol]     -18.68934312 [kJ/mol]
  Total SAPT0                      -7.82944714 [mEh]      -4.91305225 [kcal/mol]     -20.55621063 [kJ/mol]

  Special recipe for scaled SAPT0 (see Manual):
    Electrostatics sSAPT0          -5.76909878 [mEh]      -3.62016414 [kcal/mol]     -15.14676675 [kJ/mol]
    Exchange sSAPT0                -0.00013289 [mEh]      -0.00008339 [kcal/mol]      -0.00034891 [kJ/mol]
    Induction sSAPT0               -1.34916319 [mEh]      -0.84661268 [kcal/mol]      -3.54222746 [kJ/mol]
    Dispersion sSAPT0              -0.71105228 [mEh]      -0.44619204 [kcal/mol]      -1.86686751 [kJ/mol]
  Total sSAPT0                     -7.82944714 [mEh]      -4.91305225 [kcal/mol]     -20.55621063 [kJ/mol]
  --------------------------------------------------------------------------------------------------------

*** tstop() called on d-16-5-1 at Mon Jan 22 19:50:21 2024
Module time:
	user time   =    8910.81 seconds =     148.51 minutes
	system time =    1055.53 seconds =      17.59 minutes
	total time  =       7657 seconds =     127.62 minutes
Total time:
	user time   =   16818.93 seconds =     280.32 minutes
	system time =    1197.87 seconds =      19.96 minutes
	total time  =       9066 seconds =     151.10 minutes

    Psi4 stopped on: Monday, 22 January 2024 07:50PM
    Psi4 wall time for execution: 2:31:07.08

*** Psi4 exiting successfully. Buy a developer a beer!
