
    -----------------------------------------------------------------------
          Psi4: An Open-Source Ab Initio Electronic Structure Package
                               Psi4 1.9 release

                         Git: Rev {} zzzzzzz 


    D. G. A. Smith, L. A. Burns, A. C. Simmonett, R. M. Parrish,
    M. C. Schieber, R. Galvelis, P. Kraus, H. Kruse, R. Di Remigio,
    A. Alenaizan, A. M. James, S. Lehtola, J. P. Misiewicz, M. Scheurer,
    R. A. Shaw, J. B. Schriber, Y. Xie, Z. L. Glick, D. A. Sirianni,
    J. S. O'Brien, J. M. Waldrop, A. Kumar, E. G. Hohenstein,
    B. P. Pritchard, B. R. Brooks, H. F. Schaefer III, A. Yu. Sokolov,
    K. Patkowski, A. E. DePrince III, U. Bozkaya, R. A. King,
    F. A. Evangelista, J. M. Turney, T. D. Crawford, C. D. Sherrill,
    J. Chem. Phys. 152(18) 184108 (2020). https://doi.org/10.1063/5.0006002

                            Additional Code Authors
    E. T. Seidl, C. L. Janssen, E. F. Valeev, M. L. Leininger,
    J. F. Gonthier, R. M. Richard, H. R. McAlexander, M. Saitow, X. Wang,
    P. Verma, M. H. Lechner, A. Jiang, S. Behnle, A. G. Heide,
    M. F. Herbst, and D. L. Poole

             Previous Authors, Complete List of Code Contributors,
                       and Citations for Specific Modules
    https://github.com/psi4/psi4/blob/master/codemeta.json
    https://github.com/psi4/psi4/graphs/contributors
    http://psicode.org/psi4manual/master/introduction.html#citing-psifour

    -----------------------------------------------------------------------


    Psi4 started on: Friday, 26 January 2024 11:20PM

    Process ID: 55006
    Host:       n2cn0668
    PSIDATADIR: /opt/software/pc2/EB-SW/software/PSI4/1.9-foss-2022a/share/psi4
    Memory:     500.0 MiB
    Threads:    16
    
  ==> Input File <==

--------------------------------------------------------------------------
memory 64 GB # how much memory is available ! Depends on the nodes/cores !

molecule dimer {
# monomer A
+1 1    # Charge and multiplicity
C  0.680067 -1.215929 6.008042
C -0.680504 -1.215545 6.006014
N -1.085635  0.102779 6.005016
C  0.000108  0.884180 6.001740
C -2.477365  0.570758 5.955610
N  1.085222  0.102779 6.005016
H  1.385146 -2.033368 6.015870
H -1.385302 -2.033214 6.006204
H -0.000009  1.965269 5.999993
C  2.478117  0.567877 6.021908
H  2.490592  1.658130 5.994563
H  2.967028  0.220701 6.935354
H  3.001428  0.176405 5.146425
H -2.857359  0.490799 4.933539
H -3.082679 -0.042306 6.625694
H -2.518128  1.610706 6.282594
--
# monomer B
0 1     # Charge and multiplicity
C   -3.66844126402057      7.80375217008252      0.00190004133558
C   -4.84759871934653      7.13124183134024     -0.00046653359696
C   -4.89495929917518      5.69633040353158     -0.00103944469517
C   -3.65374067877320      4.98073034095895      0.00662099703436
C   -2.40942512149445      7.11398103667468      0.00209438359570
C   -2.42547734410473      5.68112195090346     -0.00491050527438
C   -1.19474401643570      7.78614419430947      0.00356656413763
C   0.03795902893699      7.09942164575698      0.00139585983271
C   0.03033258741920      5.66948955970466     -0.00408752508301
C   -1.20098450790502      4.96927034791531      0.00488220885047
C   1.27795782581485      7.77285944319479      0.00277170839332
C   2.48535808472416      7.08769688523756      0.00049722048857
C   2.48612868491717      5.65477081024076     -0.00644052849921
C   1.25408291964399      4.95607811366431      0.00518741308898
C   3.75171459140595      7.76391215098033      0.00062407186893
C   4.92356605618520      7.07878077698995     -0.00143240883900
C   4.95560727132542      5.64344746336949     -0.00159282164606
C   3.70680153420475      4.94121020833308      0.00349873852374
H   -3.65852113775815      8.89082741913536      0.00358502958574
H   -1.18921332975660      8.87412108735996      0.00753844057883
H   1.28429423888630      8.86083343548850      0.00693053253426
H   3.75354208679975      8.85103527897216      0.00214659618464
H   5.86995870320703      7.61379483465560     -0.00235777588134
H   -5.78823170750226      7.67630221293400     -0.00202638095293
C   -6.09197395869619      4.99326001364347     -0.00291168518608
C   -6.12866148031747      3.58258016879823     -0.00171050815740
C   -3.66457974004527      3.56418217974434     -0.00463560277484
C   -4.89429820469869      2.86108077590057      0.00453338221034
C   -2.43733499489796      2.84761165708481      0.00719617576166
C   -1.20922785759670      3.54788693497833     -0.00648285103018
C   1.24714157216223      3.53468075142962     -0.00729145743546
C   0.01517603956900      2.83311183930540      0.00439272578912
C   2.46764517244071      2.82128997725533      0.00449278391269
C   3.70254947457969      3.52466015442405     -0.00899517692985
C   6.14498038638375      4.92757236613191     -0.00282626685777
C   6.16658835886151      3.51658447594213     -0.00065971342101
C   4.92460995845939      2.80840792535402      0.00587903281610
H   7.08990550964105      5.46688776622306     -0.00658814770723
H   -7.03104175110130      5.54268795285765     -0.00714490013730
C   -7.33969804112295      2.85841153457957     -0.00333767559888
C   -7.36488195805880      1.47032337158330     -0.00157213747140
C   -4.90350460894690      1.44442681216000     -0.00628840166334
C   -6.13225715261081      0.73993935705394      0.00600164231964
C   -3.67687480051673      0.72669714267312      0.00433931473643
C   -2.44565658606518      1.42964113326212     -0.00597039546461
C   -1.22360068130162      0.71532450163492      0.00545886906656
C   0.00763786931376      1.41738314923765      0.00392452278437
C   1.23121980774686      0.70211669058719     -0.01490206287210
C   2.46082110053113      1.40329203612573      0.00460244601878
C   3.68443025419614      0.68719842821222      0.00377365974158
C   4.91870890153864      1.39173456118907     -0.00862816189375
C   7.36980207796101      2.77948220318441     -0.00242013321349
C   7.38016266612146      1.39121750785509     -0.00087345036788
C   6.13979953912259      0.67411862320065      0.00545489144369
H   -8.27919079934664      3.40711804112415     -0.00763522772059
H   8.31511347147953      3.31811809662368     -0.00663070901292
C   -8.59175593758115      0.72483255304480     -0.00123170985383
C   -8.59902460370342     -0.63263980622873      0.00089141472904
C   -6.13981313911873     -0.67413663715361     -0.00609792660607
C   -7.38018411213749     -1.39126618958160      0.00131813493501
C   -4.91868448025621     -1.39175501803000      0.00624257154343
C   -3.68443829568458     -0.68723731573599     -0.00478966852105
C   -2.46081704024768     -1.40334517882457      0.00575341766833
C   -1.23116201232071     -0.70217386488055     -0.00636696112346
C   -0.00756962538737     -1.41741884941102      0.00108956317991
C   1.22364771588843     -0.71527537726392      0.01109518512883
C   2.44567064933149     -1.42964328900682     -0.00065482763106
C   3.67686670284649     -0.72670743155550     -0.00479541202602
C   6.13224884641929     -0.73997883984993     -0.00632338623858
C   4.90351914550401     -1.44445752054090      0.00751768830159
C   8.59901484869081      0.63260386666793     -0.00101133422380
C   8.59174548810050     -0.72485086719319      0.00072504603735
C   7.36486276438985     -1.47033266560598      0.00049486934466
H   -9.52830597181814      1.27684744919284     -0.00270163681798
H   9.54141097460619      1.17457248844457     -0.00206336648518
C   -7.36983790976868     -2.77954514593389      0.00312634335708
C   -4.92459910905015     -2.80843725734101     -0.00460528907921
C   -6.16662249566744     -3.51665219282533      0.00169655107992
C   -3.70251035970491     -3.52468154912026      0.00571878010666
C   -2.46764698511392     -2.82132596280400     -0.00632585824990
C   -0.01513347410770     -2.83314164539971     -0.00604426974092
C   -1.24712184122656     -3.53473217556300      0.00551968366725
C   1.20924506964357     -3.54791467864352      0.00805871345849
C   2.43733602215464     -2.84764173817541     -0.00608104485234
C   4.89430234377080     -2.86112296828604     -0.00526030478103
C   3.66461525504104     -3.56421984553201      0.00761911515957
C   6.12863901474565     -3.58258405771778      0.00096495711699
C   7.33967266469532     -2.85841330737039      0.00248018319869
H   -9.54144911125902     -1.17456346666430      0.00226083090216
H   9.52826186807155     -1.27691907390448      0.00197485379837
H   -8.31516504384864     -3.31814985321231      0.00729857188773
H   8.27915514249207     -3.40714078989363      0.00681973918158
C   -6.14499418870218     -4.92764727278338      0.00302254913999
C   -3.70678334799751     -4.94126171411716     -0.00679841894792
C   -4.95559005800169     -5.64349397349412      0.00116871569699
C   -2.48612132622665     -5.65478557440947      0.00614125209662
C   -1.25405833548005     -4.95612205000132     -0.00503435388927
C   1.20101257386816     -4.96928038819302     -0.00385322963129
C   -0.03033667441341     -5.66952030313900      0.00398997003238
C   3.65375010132847     -4.98074377541453     -0.00309522988330
C   2.42549269587528     -5.68117463552727      0.00628170066869
C   6.09196561781097     -4.99325796338655      0.00325918379042
C   4.89497644461045     -5.69634842095790      0.00202298796027
H   -7.08989238804069     -5.46699984223871      0.00742531082125
H   7.03105520920009     -5.54265853633254      0.00683896355417
C   -4.92354532219813     -7.07882109967734      0.00061394679214
C   -2.48534208823777     -7.08772807792913     -0.00189594564379
C   -3.75168589177895     -7.76394715763627     -0.00170126671874
C   -0.03794895698805     -7.09946487446944     -0.00168022049625
C   -1.27795610040136     -7.77290438466689     -0.00366491325785
C   2.40944432072629     -7.11402201200282     -0.00081701968533
C   1.19474993715296     -7.78618536556242     -0.00296931056689
C   4.84762105249800     -7.13126211057943      0.00168979497423
C   3.66847160587561     -7.80378799294376     -0.00065863938960
H   -5.86994035041618     -7.61383059804164      0.00215798365757
H   5.78824962538815     -7.67633218931421      0.00281691445618
H   -3.75352693944918     -8.85107156923607     -0.00353718114765
H   -1.28430440589466     -8.86087539249706     -0.00809229711623
H   1.18922157469537     -8.87416062058945     -0.00706194725726
H   3.65854661482387     -8.89086063405326     -0.00231318081200

    units angstrom      # Angstroms are the default
    no_reorient         # Geometry fixed, default
    symmetry c1         # C1 symmetry, default
}

set {
    scf_type DF         # Density fitting, faster than exact integrals
    freeze_core True    # Freeze core electrons
    basis jun-cc-pVDZ   # Jun-cc-pVDZ basis set, recommended for sSAPT0 in https://doi.org/10.1063/1.4867135
}

energy('ssapt0')        # Compute sSAPT0 energy, includes also SAPT0
--------------------------------------------------------------------------

  Memory set to  59.605 GiB by Python driver.

Scratch directory: /tmp/
   => Loading Basis Set <=

    Name: JUN-CC-PVDZ
    Role: ORBITAL
    Keyword: BASIS
    atoms 1-2, 4-5, 10, 17-34, 41-53, 56-70, 73-89, 92-104, 109-119, 122-130 entry C          line   164 file /opt/software/pc2/EB-SW/software/PSI4/1.9-foss-2022a/share/psi4/basis/jun-cc-pvdz.gbs 
    atoms 3, 6                                                               entry N          line   198 file /opt/software/pc2/EB-SW/software/PSI4/1.9-foss-2022a/share/psi4/basis/jun-cc-pvdz.gbs 
    atoms 7-9, 11-16, 35-40, 54-55, 71-72, 90-91, 105-108, 120-121, 131-136  entry H          line    36 file /opt/software/pc2/EB-SW/software/PSI4/1.9-foss-2022a/share/psi4/basis/jun-cc-pvdz.gbs 

   => Loading Basis Set <=

    Name: JUN-CC-PVDZ
    Role: ORBITAL
    Keyword: BASIS
    atoms 1-2, 4-5, 10, 17-34, 41-53, 56-70, 73-89, 92-104, 109-119, 122-130 entry C          line   164 file /opt/software/pc2/EB-SW/software/PSI4/1.9-foss-2022a/share/psi4/basis/jun-cc-pvdz.gbs 
    atoms 3, 6                                                               entry N          line   198 file /opt/software/pc2/EB-SW/software/PSI4/1.9-foss-2022a/share/psi4/basis/jun-cc-pvdz.gbs 
    atoms 7-9, 11-16, 35-40, 54-55, 71-72, 90-91, 105-108, 120-121, 131-136  entry H          line    36 file /opt/software/pc2/EB-SW/software/PSI4/1.9-foss-2022a/share/psi4/basis/jun-cc-pvdz.gbs 


  //>>>>>>>>>>>>>>>>>>>>>>>>>>>>>>>>>>>//
  //              Dimer HF             //
  //<<<<<<<<<<<<<<<<<<<<<<<<<<<<<<<<<<<//

   => Libint2 <=

    Primary   basis highest AM E, G, H:  5, 4, 3
    Auxiliary basis highest AM E, G, H:  6, 5, 4
    Onebody   basis highest AM E, G, H:  6, 5, 4
    Solid Harmonics ordering:            gaussian

*** tstart() called on n2cn0668
*** at Fri Jan 26 23:20:41 2024

   => Loading Basis Set <=

    Name: JUN-CC-PVDZ
    Role: ORBITAL
    Keyword: BASIS
    atoms 1-2, 4-5, 10, 17-34, 41-53, 56-70, 73-89, 92-104, 109-119, 122-130 entry C          line   164 file /opt/software/pc2/EB-SW/software/PSI4/1.9-foss-2022a/share/psi4/basis/jun-cc-pvdz.gbs 
    atoms 3, 6                                                               entry N          line   198 file /opt/software/pc2/EB-SW/software/PSI4/1.9-foss-2022a/share/psi4/basis/jun-cc-pvdz.gbs 
    atoms 7-9, 11-16, 35-40, 54-55, 71-72, 90-91, 105-108, 120-121, 131-136  entry H          line    36 file /opt/software/pc2/EB-SW/software/PSI4/1.9-foss-2022a/share/psi4/basis/jun-cc-pvdz.gbs 


         ---------------------------------------------------------
                                   SCF
               by Justin Turney, Rob Parrish, Andy Simmonett
                          and Daniel G. A. Smith
                              RHF Reference
                       16 Threads,  61035 MiB Core
         ---------------------------------------------------------

  ==> Geometry <==

    Molecular point group: c1
    Full point group: C1

    Geometry (in Angstrom), charge = 1, multiplicity = 1:

       Center              X                  Y                   Z               Mass       
    ------------   -----------------  -----------------  -----------------  -----------------
         C            0.680062820275    -1.215917226251     5.550585235442    12.000000000000
         C           -0.680508179725    -1.215533226251     5.548557235442    12.000000000000
         N           -1.085639179725     0.102790773749     5.547559235442    14.003074004430
         C            0.000103820275     0.884191773749     5.544283235442    12.000000000000
         C           -2.477369179725     0.570769773749     5.498153235442    12.000000000000
         N            1.085217820275     0.102790773749     5.547559235442    14.003074004430
         H            1.385141820275    -2.033356226251     5.558413235442     1.007825032230
         H           -1.385306179725    -2.033202226251     5.548747235442     1.007825032230
         H           -0.000013179725     1.965280773749     5.542536235442     1.007825032230
         C            2.478112820275     0.567888773749     5.564451235442    12.000000000000
         H            2.490587820275     1.658141773750     5.537106235442     1.007825032230
         H            2.967023820275     0.220712773749     6.477897235442     1.007825032230
         H            3.001423820275     0.176416773749     4.688968235442     1.007825032230
         H           -2.857363179725     0.490810773749     4.476082235442     1.007825032230
         H           -3.082683179725    -0.042294226251     6.168237235442     1.007825032230
         H           -2.518132179725     1.610717773749     5.825137235442     1.007825032230
         C           -3.668445443746     7.803763943832    -0.455556723223    12.000000000000
         C           -4.847602899072     7.131253605090    -0.457923298155    12.000000000000
         C           -4.894963478901     5.696342177281    -0.458496209254    12.000000000000
         C           -3.653744858499     4.980742114708    -0.450835767524    12.000000000000
         C           -2.409429301220     7.113992810424    -0.455362380963    12.000000000000
         C           -2.425481523830     5.681133724653    -0.462367269833    12.000000000000
         C           -1.194748196161     7.786155968059    -0.453890200421    12.000000000000
         C            0.037954849212     7.099433419506    -0.456060904726    12.000000000000
         C            0.030328407694     5.669501333454    -0.461544289641    12.000000000000
         C           -1.200988687630     4.969282121665    -0.452574555708    12.000000000000
         C            1.277953646089     7.772871216944    -0.454685056165    12.000000000000
         C            2.485353904999     7.087708658987    -0.456959544070    12.000000000000
         C            2.486124505192     5.654782583990    -0.463897293058    12.000000000000
         C            1.254078739919     4.956089887414    -0.452269351469    12.000000000000
         C            3.751710411681     7.763923924730    -0.456832692689    12.000000000000
         C            4.923561876460     7.078792550739    -0.458889173397    12.000000000000
         C            4.955603091600     5.643459237119    -0.459049586204    12.000000000000
         C            3.706797354479     4.941221982083    -0.453958026035    12.000000000000
         H           -3.658525317484     8.890839192885    -0.453871734973     1.007825032230
         H           -1.189217509482     8.874132861109    -0.449918323980     1.007825032230
         H            1.284290059161     8.860845209238    -0.450526232024     1.007825032230
         H            3.753537907074     8.851047052722    -0.455310168374     1.007825032230
         H            5.869954523482     7.613806608405    -0.459814540440     1.007825032230
         H           -5.788235887228     7.676313986684    -0.459483145511     1.007825032230
         C           -6.091978138422     4.993271787393    -0.460368449744    12.000000000000
         C           -6.128665660043     3.582591942548    -0.459167272716    12.000000000000
         C           -3.664583919771     3.564193953494    -0.462092367333    12.000000000000
         C           -4.894302384424     2.861092549650    -0.452923382348    12.000000000000
         C           -2.437339174623     2.847623430834    -0.450260588797    12.000000000000
         C           -1.209232037322     3.547898708728    -0.463939615589    12.000000000000
         C            1.247137392437     3.534692525179    -0.464748221994    12.000000000000
         C            0.015171859844     2.833123613055    -0.453064038769    12.000000000000
         C            2.467640992715     2.821301751005    -0.452963980646    12.000000000000
         C            3.702545294854     3.524671928174    -0.466451941488    12.000000000000
         C            6.144976206658     4.927584139881    -0.460283031416    12.000000000000
         C            6.166584179136     3.516596249692    -0.458116477979    12.000000000000
         C            4.924605778734     2.808419699104    -0.451577731742    12.000000000000
         H            7.089901329916     5.466899539973    -0.464044912266     1.007825032230
         H           -7.031045930827     5.542699726607    -0.464601664696     1.007825032230
         C           -7.339702220848     2.858423308329    -0.460794440157    12.000000000000
         C           -7.364886137784     1.470335145333    -0.459028902030    12.000000000000
         C           -4.903508788672     1.444438585909    -0.463745166222    12.000000000000
         C           -6.132261332336     0.739951130803    -0.451455122239    12.000000000000
         C           -3.676878980242     0.726708916423    -0.453117449822    12.000000000000
         C           -2.445660765791     1.429652907012    -0.463427160023    12.000000000000
         C           -1.223604861027     0.715336275384    -0.451997895492    12.000000000000
         C            0.007633689588     1.417394922987    -0.453532241774    12.000000000000
         C            1.231215628021     0.702128464337    -0.472358827431    12.000000000000
         C            2.460816920806     1.403303809875    -0.452854318540    12.000000000000
         C            3.684426074471     0.687210201962    -0.453683104817    12.000000000000
         C            4.918704721813     1.391746334939    -0.466084926452    12.000000000000
         C            7.369797898236     2.779493976934    -0.459876897772    12.000000000000
         C            7.380158486396     1.391229281605    -0.458330214926    12.000000000000
         C            6.139795359397     0.674130396950    -0.452001873115    12.000000000000
         H           -8.279194979072     3.407129814874    -0.465091992279     1.007825032230
         H            8.315109291754     3.318129870373    -0.464087473571     1.007825032230
         C           -8.591760117307     0.724844326794    -0.458688474412    12.000000000000
         C           -8.599028783429    -0.632628032479    -0.456565349829    12.000000000000
         C           -6.139817318844    -0.674124863404    -0.463554691164    12.000000000000
         C           -7.380188291863    -1.391254415832    -0.456138629623    12.000000000000
         C           -4.918688659982    -1.391743244281    -0.451214193015    12.000000000000
         C           -3.684442475410    -0.687225541986    -0.462246433079    12.000000000000
         C           -2.460821219973    -1.403333405075    -0.451703346890    12.000000000000
         C           -1.231166192046    -0.702162091131    -0.463823725682    12.000000000000
         C           -0.007573805113    -1.417407075662    -0.456367201379    12.000000000000
         C            1.223643536163    -0.715263603514    -0.446361579430    12.000000000000
         C            2.445666469606    -1.429631515257    -0.458111592189    12.000000000000
         C            3.676862523121    -0.726695657806    -0.462252176584    12.000000000000
         C            6.132244666694    -0.739967066100    -0.463780150797    12.000000000000
         C            4.903514965779    -1.444445746791    -0.449939076257    12.000000000000
         C            8.599010668965     0.632615640417    -0.458468098782    12.000000000000
         C            8.591741308375    -0.724839093444    -0.456731718521    12.000000000000
         C            7.364858584664    -1.470320891856    -0.456961895214    12.000000000000
         H           -9.528310151544     1.276859222942    -0.460158401376     1.007825032230
         H            9.541406794881     1.174584262194    -0.459520131044     1.007825032230
         C           -7.369842089494    -2.779533372184    -0.454330421201    12.000000000000
         C           -4.924603288776    -2.808425483592    -0.462062053638    12.000000000000
         C           -6.166626675393    -3.516640419076    -0.455760213478    12.000000000000
         C           -3.702514539430    -3.524669775371    -0.451737984452    12.000000000000
         C           -2.467651164839    -2.821314189055    -0.463782622808    12.000000000000
         C           -0.015137653833    -2.833129871650    -0.463501034299    12.000000000000
         C           -1.247126020952    -3.534720401814    -0.451937080891    12.000000000000
         C            1.209240889918    -3.547902904894    -0.449398051100    12.000000000000
         C            2.437331842429    -2.847629964426    -0.463537809411    12.000000000000
         C            4.894298164045    -2.861111194537    -0.462717069339    12.000000000000
         C            3.664611075316    -3.564208071783    -0.449837649399    12.000000000000
         C            6.128634835020    -3.582572283968    -0.456491807441    12.000000000000
         C            7.339668484970    -2.858401533621    -0.454976581360    12.000000000000
         H           -9.541453290984    -1.174551692915    -0.455195933656     1.007825032230
         H            9.528257688346    -1.276907300155    -0.455481910760     1.007825032230
         H           -8.315169223574    -3.318138079463    -0.450158192671     1.007825032230
         H            8.279150962767    -3.407129016144    -0.450637025377     1.007825032230
         C           -6.144998368428    -4.927635499034    -0.454434215418    12.000000000000
         C           -3.706787527723    -4.941249940368    -0.464255183506    12.000000000000
         C           -4.955594237727    -5.643482199745    -0.456288048861    12.000000000000
         C           -2.486125505952    -5.654773800660    -0.451315512462    12.000000000000
         C           -1.254062515205    -4.956110276252    -0.462491118448    12.000000000000
         C            1.201008394143    -4.969268614444    -0.461309994190    12.000000000000
         C           -0.030340854139    -5.669508529390    -0.453466794526    12.000000000000
         C            3.653745921603    -4.980732001665    -0.460551994442    12.000000000000
         C            2.425488516150    -5.681162861778    -0.451175063890    12.000000000000
         C            6.091961438086    -4.993246189637    -0.454197580768    12.000000000000
         C            4.894972264885    -5.696336647208    -0.455433776598    12.000000000000
         H           -7.089896567766    -5.466988068489    -0.450031453737     1.007825032230
         H            7.031051029475    -5.542646762583    -0.450617801004     1.007825032230
         C           -4.923549501924    -7.078809325928    -0.456842817766    12.000000000000
         C           -2.485346267963    -7.087716304180    -0.459352710202    12.000000000000
         C           -3.751690071504    -7.763935383887    -0.459158031277    12.000000000000
         C           -0.037953136713    -7.099453100720    -0.459136985055    12.000000000000
         C           -1.277960280127    -7.772892610917    -0.461121677816    12.000000000000
         C            2.409440141001    -7.114010238253    -0.458273784244    12.000000000000
         C            1.194745757428    -7.786173591813    -0.460426075125    12.000000000000
         C            4.847616872773    -7.131250336830    -0.455766969584    12.000000000000
         C            3.668467426150    -7.803776219194    -0.458115403948    12.000000000000
         H           -5.869944530142    -7.613818824292    -0.455298780901     1.007825032230
         H            5.788245445663    -7.676320415565    -0.454639850102     1.007825032230
         H           -3.753531119175    -8.851059795487    -0.460993945706     1.007825032230
         H           -1.284308585620    -8.860863618748    -0.465549061675     1.007825032230
         H            1.189217394970    -8.874148846840    -0.464518711816     1.007825032230
         H            3.658542435098    -8.890848860304    -0.459769945370     1.007825032230

  Running in c1 symmetry.

  Rotational constants: A =      0.00062  B =      0.00062  C =      0.00035 [cm^-1]
  Rotational constants: A =     18.57809  B =     18.46364  C =     10.50436 [MHz]
  Nuclear repulsion = 17885.890373625297798

  Charge       = 1
  Multiplicity = 1
  Electrons    = 652
  Nalpha       = 326
  Nbeta        = 326

  ==> Algorithm <==

  SCF Algorithm Type is DF.
  DIIS enabled.
  MOM disabled.
  Fractional occupation disabled.
  Guess Type is SAD.
  Energy threshold   = 1.00e-08
  Density threshold  = 1.00e-08
  Integral threshold = 1.00e-12

  ==> Primary Basis <==

  Basis Set: JUN-CC-PVDZ
    Blend: JUN-CC-PVDZ
    Number of shells: 923
    Number of basis functions: 2019
    Number of Cartesian functions: 2122
    Spherical Harmonics?: true
    Max angular momentum: 2

   => Loading Basis Set <=

    Name: (JUN-CC-PVDZ AUX)
    Role: JKFIT
    Keyword: DF_BASIS_SCF
    atoms 1-2, 4-5, 10, 17-34, 41-53, 56-70, 73-89, 92-104, 109-119, 122-130 entry C          line   146 file /opt/software/pc2/EB-SW/software/PSI4/1.9-foss-2022a/share/psi4/basis/jun-cc-pvdz-jkfit.gbs 
    atoms 3, 6                                                               entry N          line   202 file /opt/software/pc2/EB-SW/software/PSI4/1.9-foss-2022a/share/psi4/basis/jun-cc-pvdz-jkfit.gbs 
    atoms 7-9, 11-16, 35-40, 54-55, 71-72, 90-91, 105-108, 120-121, 131-136  entry H          line    70 file /opt/software/pc2/EB-SW/software/PSI4/1.9-foss-2022a/share/psi4/basis/jun-cc-pvdz-jkfit.gbs 

  ==> Integral Setup <==

  ==> DiskDFJK: Density-Fitted J/K Matrices <==

    J tasked:                  Yes
    K tasked:                  Yes
    wK tasked:                  No
    OpenMP threads:             16
    Integrals threads:          16
    Memory [MiB]:            45776
    Algorithm:                Disk
    Integral Cache:           SAVE
    Schwarz Cutoff:          1E-12
    Fitting Condition:       1E-10

   => Auxiliary Basis Set <=

  Basis Set: (JUN-CC-PVDZ AUX)
    Blend: JUN-CC-PVDZ-JKFIT
    Number of shells: 3078
    Number of basis functions: 8896
    Number of Cartesian functions: 10198
    Spherical Harmonics?: true
    Max angular momentum: 3

  Minimum eigenvalue in the overlap matrix is 8.9670654883E-11.
  Reciprocal condition number of the overlap matrix is 3.9180622590E-12.
    Using canonical orthogonalization.
  Overall, 38 of 2019 possible MOs eliminated.


  ==> Pre-Iterations <==

  SCF Guess: Superposition of Atomic Densities via on-the-fly atomic UHF (no occupation information).

   -------------------------
    Irrep   Nso     Nmo    
   -------------------------
     A       2019    1981 
   -------------------------
    Total    2019    1981
   -------------------------

  ==> Iterations <==

                           Total Energy        Delta E     RMS |[F,P]|

   @DF-RHF iter SAD: -3967.13674628605395   -3.96714e+03   0.00000e+00 
   @DF-RHF iter   1: -3952.10592822561375    1.50308e+01   7.15908e-04 DIIS/ADIIS
   @DF-RHF iter   2: -3953.49727942369736   -1.39135e+00   2.34178e-04 DIIS/ADIIS
   @DF-RHF iter   3: -3953.62161804225616   -1.24339e-01   1.00527e-04 DIIS/ADIIS
   @DF-RHF iter   4: -3953.64421776797417   -2.25997e-02   4.13553e-05 DIIS
   @DF-RHF iter   5: -3953.64853116222230   -4.31339e-03   1.04601e-05 DIIS
   @DF-RHF iter   6: -3953.64897226330504   -4.41101e-04   4.59736e-06 DIIS
   @DF-RHF iter   7: -3953.64915546717339   -1.83204e-04   2.21125e-06 DIIS
   @DF-RHF iter   8: -3953.64921695702469   -6.14899e-05   1.11479e-06 DIIS
   @DF-RHF iter   9: -3953.64923455154440   -1.75945e-05   3.58465e-07 DIIS
   @DF-RHF iter  10: -3953.64923575923331   -1.20769e-06   1.44044e-07 DIIS
   @DF-RHF iter  11: -3953.64923590866965   -1.49436e-07   6.04211e-08 DIIS
   @DF-RHF iter  12: -3953.64923594146967   -3.28000e-08   2.98167e-08 DIIS
   @DF-RHF iter  13: -3953.64923594869106   -7.22139e-09   1.04216e-08 DIIS
   @DF-RHF iter  14: -3953.64923594968423   -9.93168e-10   5.13049e-09 DIIS
  Energy and wave function converged.


  ==> Post-Iterations <==

    Orbital Energies [Eh]
    ---------------------

    Doubly Occupied:                                                      

       1A    -15.816543     2A    -15.816015     3A    -11.511501  
       4A    -11.441876     5A    -11.440321     6A    -11.432084  
       7A    -11.431759     8A    -11.324487     9A    -11.324033  
      10A    -11.323912    11A    -11.323302    12A    -11.323244  
      13A    -11.322908    14A    -11.322843    15A    -11.322725  
      16A    -11.322498    17A    -11.322258    18A    -11.322216  
      19A    -11.321895    20A    -11.321832    21A    -11.321679  
      22A    -11.321611    23A    -11.321480    24A    -11.321186  
      25A    -11.321001    26A    -11.320889    27A    -11.320748  
      28A    -11.320685    29A    -11.320619    30A    -11.320207  
      31A    -11.320041    32A    -11.319085    33A    -11.319027  
      34A    -11.318946    35A    -11.318899    36A    -11.318845  
      37A    -11.318746    38A    -11.318720    39A    -11.318680  
      40A    -11.318312    41A    -11.318294    42A    -11.318181  
      43A    -11.318009    44A    -11.317272    45A    -11.317215  
      46A    -11.317167    47A    -11.316871    48A    -11.316848  
      49A    -11.316830    50A    -11.316810    51A    -11.316791  
      52A    -11.316738    53A    -11.316428    54A    -11.316232  
      55A    -11.316204    56A    -11.316193    57A    -11.316190  
      58A    -11.316170    59A    -11.316118    60A    -11.315907  
      61A    -11.315845    62A    -11.315832    63A    -11.315597  
      64A    -11.315588    65A    -11.315567    66A    -11.315564  
      67A    -11.315539    68A    -11.315496    69A    -11.315487  
      70A    -11.315467    71A    -11.315209    72A    -11.315173  
      73A    -11.315143    74A    -11.315089    75A    -11.315022  
      76A    -11.314958    77A    -11.314948    78A    -11.314529  
      79A    -11.314520    80A    -11.308327    81A    -11.308295  
      82A    -11.308257    83A    -11.308244    84A    -11.308211  
      85A    -11.308196    86A    -11.308168    87A    -11.308143  
      88A    -11.307790    89A    -11.307768    90A    -11.307607  
      91A    -11.307527    92A    -11.306910    93A    -11.306882  
      94A    -11.306872    95A    -11.306827    96A    -11.306220  
      97A    -11.306211    98A    -11.305441    99A    -11.305413  
     100A    -11.305400   101A    -11.305355   102A    -11.304750  
     103A    -11.304741   104A     -1.560018   105A     -1.415679  
     106A     -1.313070   107A     -1.296738   108A     -1.296530  
     109A     -1.277161   110A     -1.277134   111A     -1.273156  
     112A     -1.256877   113A     -1.251881   114A     -1.245640  
     115A     -1.245466   116A     -1.229337   117A     -1.229329  
     118A     -1.220571   119A     -1.212735   120A     -1.212720  
     121A     -1.209924   122A     -1.200002   123A     -1.199993  
     124A     -1.184892   125A     -1.171726   126A     -1.171348  
     127A     -1.169553   128A     -1.169423   129A     -1.168316  
     130A     -1.166671   131A     -1.144609   132A     -1.144558  
     133A     -1.131998   134A     -1.131983   135A     -1.124254  
     136A     -1.124209   137A     -1.121901   138A     -1.102643  
     139A     -1.102633   140A     -1.101047   141A     -1.096310  
     142A     -1.093761   143A     -1.093724   144A     -1.082365  
     145A     -1.079227   146A     -1.079169   147A     -1.063325  
     148A     -1.062533   149A     -1.059508   150A     -1.056988  
     151A     -1.056961   152A     -1.045714   153A     -1.027188  
     154A     -1.027166   155A     -1.011164   156A     -1.011159  
     157A     -1.004490   158A     -0.978945   159A     -0.963126  
     160A     -0.963034   161A     -0.962198   162A     -0.960089  
     163A     -0.960037   164A     -0.949912   165A     -0.949813  
     166A     -0.947255   167A     -0.947150   168A     -0.945989  
     169A     -0.927194   170A     -0.922932   171A     -0.906981  
     172A     -0.904604   173A     -0.904484   174A     -0.902309  
     175A     -0.899410   176A     -0.899164   177A     -0.890214  
     178A     -0.890187   179A     -0.882663   180A     -0.882647  
     181A     -0.841179   182A     -0.841044   183A     -0.838657  
     184A     -0.838468   185A     -0.838446   186A     -0.838120  
     187A     -0.838095   188A     -0.832336   189A     -0.823048  
     190A     -0.817905   191A     -0.806830   192A     -0.798417  
     193A     -0.795184   194A     -0.788257   195A     -0.782987  
     196A     -0.782855   197A     -0.780964   198A     -0.780452  
     199A     -0.780363   200A     -0.775118   201A     -0.772205  
     202A     -0.770206   203A     -0.770154   204A     -0.768271  
     205A     -0.763911   206A     -0.754709   207A     -0.754681  
     208A     -0.742601   209A     -0.741163   210A     -0.741133  
     211A     -0.737710   212A     -0.737698   213A     -0.734460  
     214A     -0.712084   215A     -0.708519   216A     -0.708215  
     217A     -0.706313   218A     -0.706235   219A     -0.706089  
     220A     -0.706084   221A     -0.704617   222A     -0.699129  
     223A     -0.697186   224A     -0.697112   225A     -0.695450  
     226A     -0.694330   227A     -0.691941   228A     -0.691898  
     229A     -0.684770   230A     -0.677410   231A     -0.669922  
     232A     -0.669880   233A     -0.664265   234A     -0.664235  
     235A     -0.657161   236A     -0.656880   237A     -0.654975  
     238A     -0.654918   239A     -0.654841   240A     -0.654176  
     241A     -0.650655   242A     -0.650376   243A     -0.650335  
     244A     -0.650001   245A     -0.647121   246A     -0.647087  
     247A     -0.644276   248A     -0.632471   249A     -0.632433  
     250A     -0.631791   251A     -0.631736   252A     -0.628601  
     253A     -0.627603   254A     -0.624640   255A     -0.624623  
     256A     -0.621854   257A     -0.621767   258A     -0.614779  
     259A     -0.614632   260A     -0.614523   261A     -0.612754  
     262A     -0.610025   263A     -0.606318   264A     -0.601039  
     265A     -0.600536   266A     -0.592801   267A     -0.592568  
     268A     -0.588785   269A     -0.588717   270A     -0.584433  
     271A     -0.583084   272A     -0.583062   273A     -0.578157  
     274A     -0.572759   275A     -0.572622   276A     -0.570764  
     277A     -0.570758   278A     -0.564340   279A     -0.564328  
     280A     -0.553581   281A     -0.552173   282A     -0.552088  
     283A     -0.551050   284A     -0.551022   285A     -0.546921  
     286A     -0.536100   287A     -0.532449   288A     -0.532441  
     289A     -0.529140   290A     -0.525914   291A     -0.522323  
     292A     -0.522280   293A     -0.515151   294A     -0.505648  
     295A     -0.503922   296A     -0.503797   297A     -0.498193  
     298A     -0.498100   299A     -0.497878   300A     -0.489387  
     301A     -0.488759   302A     -0.463597   303A     -0.463553  
     304A     -0.443408   305A     -0.443351   306A     -0.440988  
     307A     -0.440349   308A     -0.440333   309A     -0.410262  
     310A     -0.410253   311A     -0.406668   312A     -0.396669  
     313A     -0.394525   314A     -0.394455   315A     -0.387386  
     316A     -0.387281   317A     -0.364397   318A     -0.359102  
     319A     -0.359072   320A     -0.356306   321A     -0.341703  
     322A     -0.310443   323A     -0.310393   324A     -0.310179  
     325A     -0.259919   326A     -0.259889  

    Virtual:                                                              

     327A     -0.067176   328A     -0.066989   329A     -0.054060  
     330A     -0.046619   331A     -0.040380   332A     -0.034806  
     333A     -0.021776   334A     -0.021650   335A     -0.017539  
     336A     -0.015096   337A     -0.013985   338A     -0.013238  
     339A     -0.009948   340A     -0.000534   341A     -0.000331  
     342A      0.000187   343A      0.003745   344A      0.003804  
     345A      0.005920   346A      0.007486   347A      0.010192  
     348A      0.010414   349A      0.012180   350A      0.013344  
     351A      0.013414   352A      0.013527   353A      0.014889  
     354A      0.015748   355A      0.017982   356A      0.018080  
     357A      0.018167   358A      0.023221   359A      0.023316  
     360A      0.025562   361A      0.027656   362A      0.028788  
     363A      0.029414   364A      0.029444   365A      0.030674  
     366A      0.031997   367A      0.035818   368A      0.037238  
     369A      0.039405   370A      0.039511   371A      0.039581  
     372A      0.040535   373A      0.043304   374A      0.044513  
     375A      0.046374   376A      0.051207   377A      0.051311  
     378A      0.052155   379A      0.054414   380A      0.055376  
     381A      0.056527   382A      0.056972   383A      0.057498  
     384A      0.058321   385A      0.058670   386A      0.059080  
     387A      0.060377   388A      0.060470   389A      0.060585  
     390A      0.062022   391A      0.063011   392A      0.067394  
     393A      0.069735   394A      0.071710   395A      0.071759  
     396A      0.075199   397A      0.075359   398A      0.076753  
     399A      0.079004   400A      0.080677   401A      0.081321  
     402A      0.081513   403A      0.084129   404A      0.085292  
     405A      0.085765   406A      0.087353   407A      0.089143  
     408A      0.089700   409A      0.090717   410A      0.091536  
     411A      0.092646   412A      0.095599   413A      0.096242  
     414A      0.096905   415A      0.098613   416A      0.101560  
     417A      0.101707   418A      0.102224   419A      0.102972  
     420A      0.104577   421A      0.109063   422A      0.109520  
     423A      0.110655   424A      0.111037   425A      0.111944  
     426A      0.112199   427A      0.112679   428A      0.114506  
     429A      0.114987   430A      0.116743   431A      0.118264  
     432A      0.118952   433A      0.119131   434A      0.120135  
     435A      0.120615   436A      0.124767   437A      0.125278  
     438A      0.126458   439A      0.127426   440A      0.130740  
     441A      0.131028   442A      0.131170   443A      0.132688  
     444A      0.136352   445A      0.138220   446A      0.139608  
     447A      0.140027   448A      0.140213   449A      0.141921  
     450A      0.144579   451A      0.146616   452A      0.148116  
     453A      0.149194   454A      0.150538   455A      0.151283  
     456A      0.151555   457A      0.151976   458A      0.152266  
     459A      0.153071   460A      0.154271   461A      0.156345  
     462A      0.156360   463A      0.156568   464A      0.156769  
     465A      0.157702   466A      0.158997   467A      0.159379  
     468A      0.159777   469A      0.162103   470A      0.162708  
     471A      0.163522   472A      0.164967   473A      0.165929  
     474A      0.166098   475A      0.167554   476A      0.168729  
     477A      0.169250   478A      0.170360   479A      0.170678  
     480A      0.171592   481A      0.173293   482A      0.174541  
     483A      0.174653   484A      0.174993   485A      0.177038  
     486A      0.178593   487A      0.178857   488A      0.179517  
     489A      0.180038   490A      0.181770   491A      0.183562  
     492A      0.185159   493A      0.185964   494A      0.186155  
     495A      0.188256   496A      0.189130   497A      0.190590  
     498A      0.190954   499A      0.191523   500A      0.193145  
     501A      0.193652   502A      0.195465   503A      0.196509  
     504A      0.196700   505A      0.196816   506A      0.198912  
     507A      0.199668   508A      0.200772   509A      0.202227  
     510A      0.204029   511A      0.204381   512A      0.208423  
     513A      0.208653   514A      0.209807   515A      0.210098  
     516A      0.211944   517A      0.212861   518A      0.213375  
     519A      0.214706   520A      0.216219   521A      0.216705  
     522A      0.216857   523A      0.217695   524A      0.218596  
     525A      0.219515   526A      0.221802   527A      0.223064  
     528A      0.224121   529A      0.224388   530A      0.224712  
     531A      0.224749   532A      0.226325   533A      0.227822  
     534A      0.228045   535A      0.228384   536A      0.231135  
     537A      0.233813   538A      0.234109   539A      0.234486  
     540A      0.235256   541A      0.235555   542A      0.237112  
     543A      0.238399   544A      0.240321   545A      0.240756  
     546A      0.241009   547A      0.242124   548A      0.243053  
     549A      0.243932   550A      0.247017   551A      0.247565  
     552A      0.247768   553A      0.252638   554A      0.253578  
     555A      0.253773   556A      0.254230   557A      0.254355  
     558A      0.256061   559A      0.256170   560A      0.257087  
     561A      0.258315   562A      0.261053   563A      0.261401  
     564A      0.261870   565A      0.262651   566A      0.263526  
     567A      0.263801   568A      0.265159   569A      0.267450  
     570A      0.267526   571A      0.267738   572A      0.268430  
     573A      0.268579   574A      0.270802   575A      0.271706  
     576A      0.271944   577A      0.273494   578A      0.275832  
     579A      0.276328   580A      0.277386   581A      0.277604  
     582A      0.277998   583A      0.279352   584A      0.279406  
     585A      0.280236   586A      0.280695   587A      0.281761  
     588A      0.282371   589A      0.284094   590A      0.285516  
     591A      0.286287   592A      0.288958   593A      0.289092  
     594A      0.289405   595A      0.291727   596A      0.292040  
     597A      0.292633   598A      0.292785   599A      0.293779  
     600A      0.294539   601A      0.295255   602A      0.296278  
     603A      0.296594   604A      0.296975   605A      0.297540  
     606A      0.300453   607A      0.302276   608A      0.302699  
     609A      0.303691   610A      0.307279   611A      0.308285  
     612A      0.309191   613A      0.309529   614A      0.310332  
     615A      0.311840   616A      0.313480   617A      0.314507  
     618A      0.315570   619A      0.315815   620A      0.316351  
     621A      0.316778   622A      0.317303   623A      0.318218  
     624A      0.319584   625A      0.321649   626A      0.323830  
     627A      0.324169   628A      0.325637   629A      0.325979  
     630A      0.326913   631A      0.327812   632A      0.328897  
     633A      0.329513   634A      0.329570   635A      0.332646  
     636A      0.333155   637A      0.334897   638A      0.336295  
     639A      0.338144   640A      0.338755   641A      0.339783  
     642A      0.340669   643A      0.341097   644A      0.341455  
     645A      0.341970   646A      0.342394   647A      0.342831  
     648A      0.343340   649A      0.343550   650A      0.344816  
     651A      0.345614   652A      0.346265   653A      0.347711  
     654A      0.347851   655A      0.348282   656A      0.350776  
     657A      0.351015   658A      0.351297   659A      0.351663  
     660A      0.351961   661A      0.353493   662A      0.355329  
     663A      0.355496   664A      0.356734   665A      0.357140  
     666A      0.357867   667A      0.358362   668A      0.359588  
     669A      0.360295   670A      0.361159   671A      0.361406  
     672A      0.362091   673A      0.362633   674A      0.363669  
     675A      0.365796   676A      0.367804   677A      0.368718  
     678A      0.369993   679A      0.370953   680A      0.372761  
     681A      0.373386   682A      0.374288   683A      0.375038  
     684A      0.375952   685A      0.376050   686A      0.377030  
     687A      0.378608   688A      0.379236   689A      0.379389  
     690A      0.379987   691A      0.380844   692A      0.382270  
     693A      0.384217   694A      0.384555   695A      0.385527  
     696A      0.386064   697A      0.387691   698A      0.387984  
     699A      0.389462   700A      0.393900   701A      0.396903  
     702A      0.397507   703A      0.398223   704A      0.398850  
     705A      0.399214   706A      0.399898   707A      0.401651  
     708A      0.401820   709A      0.402280   710A      0.403013  
     711A      0.403478   712A      0.403729   713A      0.404515  
     714A      0.406069   715A      0.408149   716A      0.409778  
     717A      0.410879   718A      0.411686   719A      0.412309  
     720A      0.413306   721A      0.414151   722A      0.414378  
     723A      0.415951   724A      0.416849   725A      0.418274  
     726A      0.420046   727A      0.420388   728A      0.420831  
     729A      0.421365   730A      0.421861   731A      0.422446  
     732A      0.423041   733A      0.423207   734A      0.423825  
     735A      0.425325   736A      0.426392   737A      0.428608  
     738A      0.430896   739A      0.431430   740A      0.435238  
     741A      0.435945   742A      0.436488   743A      0.437449  
     744A      0.438430   745A      0.439157   746A      0.440409  
     747A      0.440879   748A      0.441178   749A      0.443327  
     750A      0.443634   751A      0.447887   752A      0.449079  
     753A      0.450074   754A      0.450111   755A      0.450892  
     756A      0.452000   757A      0.452770   758A      0.455316  
     759A      0.457298   760A      0.458602   761A      0.460347  
     762A      0.461181   763A      0.461805   764A      0.462605  
     765A      0.463774   766A      0.464954   767A      0.465597  
     768A      0.466291   769A      0.468939   770A      0.469928  
     771A      0.470636   772A      0.471023   773A      0.472929  
     774A      0.476323   775A      0.478376   776A      0.478635  
     777A      0.479708   778A      0.480279   779A      0.484338  
     780A      0.485675   781A      0.485924   782A      0.486715  
     783A      0.488503   784A      0.490585   785A      0.492905  
     786A      0.493952   787A      0.503804   788A      0.504691  
     789A      0.505838   790A      0.507660   791A      0.508391  
     792A      0.509326   793A      0.509869   794A      0.512651  
     795A      0.513455   796A      0.514075   797A      0.515868  
     798A      0.516058   799A      0.517504   800A      0.518780  
     801A      0.521200   802A      0.521360   803A      0.522790  
     804A      0.523202   805A      0.523736   806A      0.524475  
     807A      0.525171   808A      0.528015   809A      0.530249  
     810A      0.532896   811A      0.534163   812A      0.535011  
     813A      0.535460   814A      0.536959   815A      0.538682  
     816A      0.539101   817A      0.541787   818A      0.542636  
     819A      0.544061   820A      0.548518   821A      0.549077  
     822A      0.550131   823A      0.551092   824A      0.551826  
     825A      0.556150   826A      0.561916   827A      0.564194  
     828A      0.565037   829A      0.565875   830A      0.566188  
     831A      0.573947   832A      0.574989   833A      0.575422  
     834A      0.576658   835A      0.583426   836A      0.585606  
     837A      0.586082   838A      0.589691   839A      0.591792  
     840A      0.599777   841A      0.600056   842A      0.600989  
     843A      0.604281   844A      0.604376   845A      0.605179  
     846A      0.605419   847A      0.610017   848A      0.611348  
     849A      0.612865   850A      0.616426   851A      0.620458  
     852A      0.624907   853A      0.630437   854A      0.630592  
     855A      0.631847   856A      0.631873   857A      0.634426  
     858A      0.636439   859A      0.636520   860A      0.637592  
     861A      0.642026   862A      0.643265   863A      0.645195  
     864A      0.645398   865A      0.645756   866A      0.650853  
     867A      0.651035   868A      0.654473   869A      0.657057  
     870A      0.664325   871A      0.665936   872A      0.672693  
     873A      0.674218   874A      0.677767   875A      0.681011  
     876A      0.684709   877A      0.685353   878A      0.686049  
     879A      0.688562   880A      0.688843   881A      0.689726  
     882A      0.690486   883A      0.692822   884A      0.694785  
     885A      0.695157   886A      0.696766   887A      0.699757  
     888A      0.707828   889A      0.716705   890A      0.719991  
     891A      0.726594   892A      0.728974   893A      0.729886  
     894A      0.731789   895A      0.734245   896A      0.735925  
     897A      0.737042   898A      0.739267   899A      0.739638  
     900A      0.740799   901A      0.746928   902A      0.748667  
     903A      0.749424   904A      0.750595   905A      0.752197  
     906A      0.754061   907A      0.756639   908A      0.757342  
     909A      0.758754   910A      0.760311   911A      0.762451  
     912A      0.763816   913A      0.765552   914A      0.768071  
     915A      0.769936   916A      0.771248   917A      0.772184  
     918A      0.774510   919A      0.776468   920A      0.778687  
     921A      0.781003   922A      0.782104   923A      0.782474  
     924A      0.785457   925A      0.788806   926A      0.789834  
     927A      0.791984   928A      0.792513   929A      0.794202  
     930A      0.796780   931A      0.798465   932A      0.800328  
     933A      0.803149   934A      0.803551   935A      0.805373  
     936A      0.807322   937A      0.808402   938A      0.810051  
     939A      0.811991   940A      0.813447   941A      0.814297  
     942A      0.815179   943A      0.818088   944A      0.818489  
     945A      0.820719   946A      0.821127   947A      0.821916  
     948A      0.822836   949A      0.825042   950A      0.826618  
     951A      0.829324   952A      0.829893   953A      0.831796  
     954A      0.832351   955A      0.835046   956A      0.835338  
     957A      0.838409   958A      0.838643   959A      0.841905  
     960A      0.842053   961A      0.844670   962A      0.845807  
     963A      0.849052   964A      0.852210   965A      0.853335  
     966A      0.853524   967A      0.856419   968A      0.858963  
     969A      0.859945   970A      0.861469   971A      0.863037  
     972A      0.865989   973A      0.866790   974A      0.867760  
     975A      0.868092   976A      0.868240   977A      0.870641  
     978A      0.871308   979A      0.872805   980A      0.873387  
     981A      0.877071   982A      0.878023   983A      0.879182  
     984A      0.879686   985A      0.880103   986A      0.880510  
     987A      0.884372   988A      0.884633   989A      0.886116  
     990A      0.889318   991A      0.890027   992A      0.891313  
     993A      0.893491   994A      0.895453   995A      0.895647  
     996A      0.896441   997A      0.897331   998A      0.898583  
     999A      0.899177  1000A      0.899336  1001A      0.900836  
    1002A      0.902222  1003A      0.902541  1004A      0.903289  
    1005A      0.903576  1006A      0.904901  1007A      0.911712  
    1008A      0.912922  1009A      0.913643  1010A      0.915569  
    1011A      0.916499  1012A      0.920946  1013A      0.921624  
    1014A      0.926655  1015A      0.928109  1016A      0.928941  
    1017A      0.930358  1018A      0.932547  1019A      0.939455  
    1020A      0.939549  1021A      0.940452  1022A      0.940594  
    1023A      0.947337  1024A      0.947713  1025A      0.948441  
    1026A      0.949948  1027A      0.951390  1028A      0.952425  
    1029A      0.952765  1030A      0.955996  1031A      0.958965  
    1032A      0.961765  1033A      0.962507  1034A      0.965921  
    1035A      0.966226  1036A      0.966672  1037A      0.967777  
    1038A      0.968577  1039A      0.974555  1040A      0.976108  
    1041A      0.976376  1042A      0.978122  1043A      0.980224  
    1044A      0.981600  1045A      0.983625  1046A      0.985407  
    1047A      0.987976  1048A      0.990534  1049A      0.990715  
    1050A      0.990947  1051A      0.992989  1052A      0.993331  
    1053A      0.993722  1054A      0.994786  1055A      0.997001  
    1056A      0.997798  1057A      0.998291  1058A      0.998694  
    1059A      1.000265  1060A      1.002317  1061A      1.004506  
    1062A      1.006667  1063A      1.008018  1064A      1.009408  
    1065A      1.009453  1066A      1.010951  1067A      1.012090  
    1068A      1.012982  1069A      1.014038  1070A      1.014732  
    1071A      1.014987  1072A      1.015603  1073A      1.016631  
    1074A      1.017108  1075A      1.017930  1076A      1.018837  
    1077A      1.019397  1078A      1.020482  1079A      1.020855  
    1080A      1.021175  1081A      1.021897  1082A      1.022193  
    1083A      1.023526  1084A      1.023758  1085A      1.024323  
    1086A      1.025038  1087A      1.025468  1088A      1.027232  
    1089A      1.028170  1090A      1.029302  1091A      1.029777  
    1092A      1.030093  1093A      1.030767  1094A      1.032488  
    1095A      1.033626  1096A      1.034559  1097A      1.034764  
    1098A      1.035676  1099A      1.037339  1100A      1.037895  
    1101A      1.039265  1102A      1.039380  1103A      1.042258  
    1104A      1.042565  1105A      1.044138  1106A      1.045124  
    1107A      1.046751  1108A      1.047957  1109A      1.048332  
    1110A      1.048915  1111A      1.050485  1112A      1.054181  
    1113A      1.055649  1114A      1.056731  1115A      1.057882  
    1116A      1.059160  1117A      1.063983  1118A      1.064686  
    1119A      1.065544  1120A      1.065963  1121A      1.071788  
    1122A      1.072251  1123A      1.074524  1124A      1.075580  
    1125A      1.077990  1126A      1.078657  1127A      1.079021  
    1128A      1.081028  1129A      1.082451  1130A      1.083424  
    1131A      1.084843  1132A      1.085961  1133A      1.089043  
    1134A      1.089164  1135A      1.089763  1136A      1.090966  
    1137A      1.092359  1138A      1.093757  1139A      1.094902  
    1140A      1.096085  1141A      1.096591  1142A      1.101896  
    1143A      1.102225  1144A      1.103381  1145A      1.104125  
    1146A      1.108871  1147A      1.109313  1148A      1.112286  
    1149A      1.114290  1150A      1.115127  1151A      1.120592  
    1152A      1.120736  1153A      1.125276  1154A      1.128340  
    1155A      1.129542  1156A      1.131073  1157A      1.133668  
    1158A      1.136570  1159A      1.137273  1160A      1.138433  
    1161A      1.139231  1162A      1.146646  1163A      1.146869  
    1164A      1.148063  1165A      1.149665  1166A      1.150309  
    1167A      1.151418  1168A      1.153126  1169A      1.156172  
    1170A      1.158050  1171A      1.160401  1172A      1.161744  
    1173A      1.162739  1174A      1.164020  1175A      1.164658  
    1176A      1.168211  1177A      1.171034  1178A      1.171972  
    1179A      1.173380  1180A      1.177702  1181A      1.179166  
    1182A      1.180531  1183A      1.186329  1184A      1.191492  
    1185A      1.191758  1186A      1.192463  1187A      1.194241  
    1188A      1.197444  1189A      1.198259  1190A      1.201374  
    1191A      1.207172  1192A      1.207494  1193A      1.208490  
    1194A      1.209258  1195A      1.216215  1196A      1.217202  
    1197A      1.219228  1198A      1.220972  1199A      1.228844  
    1200A      1.231345  1201A      1.231526  1202A      1.236316  
    1203A      1.236447  1204A      1.236638  1205A      1.239945  
    1206A      1.240138  1207A      1.242433  1208A      1.242822  
    1209A      1.249403  1210A      1.250164  1211A      1.251455  
    1212A      1.251713  1213A      1.252802  1214A      1.259078  
    1215A      1.259162  1216A      1.260771  1217A      1.264313  
    1218A      1.265065  1219A      1.265494  1220A      1.266264  
    1221A      1.266352  1222A      1.268268  1223A      1.272527  
    1224A      1.272946  1225A      1.277164  1226A      1.277746  
    1227A      1.279506  1228A      1.281730  1229A      1.282775  
    1230A      1.284898  1231A      1.285123  1232A      1.287890  
    1233A      1.295621  1234A      1.297336  1235A      1.299019  
    1236A      1.300530  1237A      1.300667  1238A      1.303471  
    1239A      1.304270  1240A      1.308256  1241A      1.309360  
    1242A      1.309649  1243A      1.314395  1244A      1.315291  
    1245A      1.316798  1246A      1.318407  1247A      1.319311  
    1248A      1.321200  1249A      1.330570  1250A      1.332224  
    1251A      1.333140  1252A      1.335374  1253A      1.339469  
    1254A      1.339847  1255A      1.340550  1256A      1.341920  
    1257A      1.344417  1258A      1.348308  1259A      1.352324  
    1260A      1.352907  1261A      1.353540  1262A      1.355101  
    1263A      1.356730  1264A      1.357545  1265A      1.358321  
    1266A      1.360149  1267A      1.360199  1268A      1.367080  
    1269A      1.367640  1270A      1.369455  1271A      1.370858  
    1272A      1.372087  1273A      1.372942  1274A      1.373135  
    1275A      1.375069  1276A      1.377599  1277A      1.378668  
    1278A      1.381754  1279A      1.382103  1280A      1.382493  
    1281A      1.386077  1282A      1.386712  1283A      1.387706  
    1284A      1.388195  1285A      1.391953  1286A      1.393037  
    1287A      1.395015  1288A      1.396005  1289A      1.396265  
    1290A      1.396898  1291A      1.400403  1292A      1.406838  
    1293A      1.411729  1294A      1.412828  1295A      1.414541  
    1296A      1.416880  1297A      1.417448  1298A      1.417818  
    1299A      1.419186  1300A      1.424838  1301A      1.429243  
    1302A      1.429530  1303A      1.430271  1304A      1.435702  
    1305A      1.440132  1306A      1.440772  1307A      1.444743  
    1308A      1.448533  1309A      1.450284  1310A      1.450523  
    1311A      1.458827  1312A      1.462619  1313A      1.463097  
    1314A      1.482227  1315A      1.485377  1316A      1.485879  
    1317A      1.488340  1318A      1.497062  1319A      1.497164  
    1320A      1.497792  1321A      1.508555  1322A      1.527002  
    1323A      1.527706  1324A      1.536715  1325A      1.540031  
    1326A      1.543113  1327A      1.544368  1328A      1.546456  
    1329A      1.547508  1330A      1.548729  1331A      1.550066  
    1332A      1.551933  1333A      1.552532  1334A      1.554778  
    1335A      1.555647  1336A      1.557314  1337A      1.557951  
    1338A      1.558286  1339A      1.558903  1340A      1.559922  
    1341A      1.560900  1342A      1.563466  1343A      1.565551  
    1344A      1.565939  1345A      1.568545  1346A      1.571013  
    1347A      1.571950  1348A      1.572805  1349A      1.574344  
    1350A      1.574669  1351A      1.579073  1352A      1.579679  
    1353A      1.581428  1354A      1.581970  1355A      1.582395  
    1356A      1.582879  1357A      1.583631  1358A      1.583982  
    1359A      1.586914  1360A      1.587604  1361A      1.588451  
    1362A      1.589215  1363A      1.593077  1364A      1.595336  
    1365A      1.596969  1366A      1.597011  1367A      1.600853  
    1368A      1.601144  1369A      1.602252  1370A      1.608994  
    1371A      1.609458  1372A      1.611656  1373A      1.612117  
    1374A      1.612470  1375A      1.613258  1376A      1.613331  
    1377A      1.614646  1378A      1.621081  1379A      1.621364  
    1380A      1.622127  1381A      1.622870  1382A      1.632402  
    1383A      1.633133  1384A      1.634688  1385A      1.637494  
    1386A      1.640108  1387A      1.640474  1388A      1.641028  
    1389A      1.642113  1390A      1.644047  1391A      1.647633  
    1392A      1.653817  1393A      1.654039  1394A      1.654322  
    1395A      1.658655  1396A      1.660604  1397A      1.660728  
    1398A      1.663542  1399A      1.665143  1400A      1.666125  
    1401A      1.666198  1402A      1.668817  1403A      1.669865  
    1404A      1.682252  1405A      1.682424  1406A      1.690087  
    1407A      1.691795  1408A      1.692155  1409A      1.692410  
    1410A      1.694727  1411A      1.695621  1412A      1.699751  
    1413A      1.707819  1414A      1.709670  1415A      1.712576  
    1416A      1.715176  1417A      1.716550  1418A      1.724337  
    1419A      1.731815  1420A      1.732535  1421A      1.733113  
    1422A      1.745765  1423A      1.745972  1424A      1.753467  
    1425A      1.757916  1426A      1.762572  1427A      1.766144  
    1428A      1.768156  1429A      1.771132  1430A      1.771427  
    1431A      1.772321  1432A      1.772837  1433A      1.774575  
    1434A      1.776694  1435A      1.777471  1436A      1.777851  
    1437A      1.780834  1438A      1.781073  1439A      1.781151  
    1440A      1.781489  1441A      1.784213  1442A      1.787744  
    1443A      1.788769  1444A      1.789368  1445A      1.802070  
    1446A      1.802546  1447A      1.803220  1448A      1.804795  
    1449A      1.804978  1450A      1.807007  1451A      1.807224  
    1452A      1.810807  1453A      1.812913  1454A      1.815202  
    1455A      1.815710  1456A      1.819054  1457A      1.819931  
    1458A      1.820476  1459A      1.826527  1460A      1.827382  
    1461A      1.827577  1462A      1.828238  1463A      1.829004  
    1464A      1.829423  1465A      1.829979  1466A      1.830829  
    1467A      1.833289  1468A      1.833649  1469A      1.835398  
    1470A      1.842722  1471A      1.845200  1472A      1.848386  
    1473A      1.849081  1474A      1.851095  1475A      1.851587  
    1476A      1.855930  1477A      1.859753  1478A      1.859970  
    1479A      1.861581  1480A      1.865111  1481A      1.866064  
    1482A      1.866407  1483A      1.867704  1484A      1.868625  
    1485A      1.869959  1486A      1.871877  1487A      1.876292  
    1488A      1.881111  1489A      1.882009  1490A      1.883892  
    1491A      1.884364  1492A      1.884586  1493A      1.885258  
    1494A      1.886529  1495A      1.888220  1496A      1.889262  
    1497A      1.890658  1498A      1.891359  1499A      1.896820  
    1500A      1.897586  1501A      1.899480  1502A      1.900679  
    1503A      1.903409  1504A      1.903726  1505A      1.905627  
    1506A      1.905897  1507A      1.906804  1508A      1.911330  
    1509A      1.913411  1510A      1.914464  1511A      1.916102  
    1512A      1.916701  1513A      1.918037  1514A      1.920285  
    1515A      1.921313  1516A      1.925096  1517A      1.926466  
    1518A      1.929853  1519A      1.934467  1520A      1.937044  
    1521A      1.937461  1522A      1.938657  1523A      1.939217  
    1524A      1.940211  1525A      1.951878  1526A      1.952598  
    1527A      1.954981  1528A      1.956261  1529A      1.957463  
    1530A      1.960721  1531A      1.961343  1532A      1.961884  
    1533A      1.962976  1534A      1.963841  1535A      1.964500  
    1536A      1.964937  1537A      1.966090  1538A      1.969149  
    1539A      1.972246  1540A      1.973679  1541A      1.975279  
    1542A      1.977996  1543A      1.978859  1544A      1.979952  
    1545A      1.984184  1546A      1.987079  1547A      1.987498  
    1548A      1.991429  1549A      1.993100  1550A      1.994453  
    1551A      1.997386  1552A      1.998563  1553A      2.000650  
    1554A      2.001033  1555A      2.003113  1556A      2.004167  
    1557A      2.004761  1558A      2.005986  1559A      2.011509  
    1560A      2.013174  1561A      2.014448  1562A      2.015103  
    1563A      2.020663  1564A      2.022881  1565A      2.024731  
    1566A      2.025305  1567A      2.025616  1568A      2.026617  
    1569A      2.027380  1570A      2.028439  1571A      2.028766  
    1572A      2.031126  1573A      2.031545  1574A      2.033326  
    1575A      2.034232  1576A      2.034860  1577A      2.035930  
    1578A      2.036541  1579A      2.037209  1580A      2.038790  
    1581A      2.039608  1582A      2.042062  1583A      2.042290  
    1584A      2.043116  1585A      2.044565  1586A      2.046554  
    1587A      2.046719  1588A      2.048127  1589A      2.051743  
    1590A      2.055394  1591A      2.056381  1592A      2.057075  
    1593A      2.057493  1594A      2.058239  1595A      2.060268  
    1596A      2.062378  1597A      2.062575  1598A      2.063033  
    1599A      2.066474  1600A      2.071288  1601A      2.071857  
    1602A      2.072317  1603A      2.072641  1604A      2.072993  
    1605A      2.073302  1606A      2.073706  1607A      2.075684  
    1608A      2.080781  1609A      2.081008  1610A      2.081994  
    1611A      2.082693  1612A      2.086324  1613A      2.086953  
    1614A      2.089008  1615A      2.089992  1616A      2.090193  
    1617A      2.097445  1618A      2.099157  1619A      2.099603  
    1620A      2.101961  1621A      2.102704  1622A      2.103414  
    1623A      2.104018  1624A      2.104378  1625A      2.105019  
    1626A      2.108630  1627A      2.109440  1628A      2.114316  
    1629A      2.116151  1630A      2.119242  1631A      2.124345  
    1632A      2.125947  1633A      2.126004  1634A      2.127314  
    1635A      2.132887  1636A      2.133363  1637A      2.134132  
    1638A      2.134461  1639A      2.137333  1640A      2.137773  
    1641A      2.140505  1642A      2.141511  1643A      2.143400  
    1644A      2.143737  1645A      2.145428  1646A      2.146117  
    1647A      2.148468  1648A      2.149864  1649A      2.150817  
    1650A      2.154419  1651A      2.158358  1652A      2.158599  
    1653A      2.161503  1654A      2.163730  1655A      2.167424  
    1656A      2.167691  1657A      2.168564  1658A      2.168785  
    1659A      2.169711  1660A      2.171080  1661A      2.173404  
    1662A      2.177400  1663A      2.179119  1664A      2.179625  
    1665A      2.180756  1666A      2.182326  1667A      2.182426  
    1668A      2.185771  1669A      2.186881  1670A      2.191303  
    1671A      2.193771  1672A      2.194282  1673A      2.195436  
    1674A      2.207430  1675A      2.209120  1676A      2.209606  
    1677A      2.211055  1678A      2.212406  1679A      2.216663  
    1680A      2.219560  1681A      2.223837  1682A      2.227921  
    1683A      2.229156  1684A      2.236081  1685A      2.236922  
    1686A      2.239961  1687A      2.242215  1688A      2.244967  
    1689A      2.248923  1690A      2.249384  1691A      2.253676  
    1692A      2.259183  1693A      2.267586  1694A      2.269707  
    1695A      2.269778  1696A      2.271611  1697A      2.272625  
    1698A      2.273648  1699A      2.275527  1700A      2.275995  
    1701A      2.276581  1702A      2.277941  1703A      2.279065  
    1704A      2.282896  1705A      2.286001  1706A      2.286550  
    1707A      2.286849  1708A      2.288780  1709A      2.289379  
    1710A      2.290078  1711A      2.292341  1712A      2.292733  
    1713A      2.310117  1714A      2.314903  1715A      2.314987  
    1716A      2.320368  1717A      2.329023  1718A      2.332303  
    1719A      2.333783  1720A      2.335610  1721A      2.336833  
    1722A      2.340199  1723A      2.346198  1724A      2.355398  
    1725A      2.363102  1726A      2.364160  1727A      2.367679  
    1728A      2.372205  1729A      2.375559  1730A      2.386561  
    1731A      2.388157  1732A      2.396034  1733A      2.396854  
    1734A      2.409152  1735A      2.409252  1736A      2.412609  
    1737A      2.412801  1738A      2.416891  1739A      2.417200  
    1740A      2.436818  1741A      2.437234  1742A      2.438411  
    1743A      2.447360  1744A      2.452331  1745A      2.453568  
    1746A      2.456828  1747A      2.459145  1748A      2.462168  
    1749A      2.481511  1750A      2.483197  1751A      2.483585  
    1752A      2.485277  1753A      2.487265  1754A      2.487920  
    1755A      2.488934  1756A      2.492473  1757A      2.493748  
    1758A      2.495368  1759A      2.496318  1760A      2.499413  
    1761A      2.499669  1762A      2.508404  1763A      2.515851  
    1764A      2.517688  1765A      2.522937  1766A      2.526688  
    1767A      2.530154  1768A      2.530796  1769A      2.531136  
    1770A      2.531554  1771A      2.535455  1772A      2.535765  
    1773A      2.537965  1774A      2.540849  1775A      2.546571  
    1776A      2.546697  1777A      2.557918  1778A      2.558411  
    1779A      2.558669  1780A      2.558912  1781A      2.562618  
    1782A      2.563127  1783A      2.577332  1784A      2.584904  
    1785A      2.586100  1786A      2.588170  1787A      2.589624  
    1788A      2.592401  1789A      2.593186  1790A      2.593653  
    1791A      2.595105  1792A      2.599085  1793A      2.601580  
    1794A      2.601979  1795A      2.608845  1796A      2.609916  
    1797A      2.613594  1798A      2.616317  1799A      2.616666  
    1800A      2.617197  1801A      2.622967  1802A      2.623894  
    1803A      2.625480  1804A      2.629387  1805A      2.630013  
    1806A      2.631593  1807A      2.635432  1808A      2.635622  
    1809A      2.636215  1810A      2.636978  1811A      2.640297  
    1812A      2.641708  1813A      2.648203  1814A      2.659364  
    1815A      2.666674  1816A      2.675435  1817A      2.675539  
    1818A      2.676505  1819A      2.677594  1820A      2.678101  
    1821A      2.682256  1822A      2.696612  1823A      2.697398  
    1824A      2.700109  1825A      2.703598  1826A      2.704810  
    1827A      2.713467  1828A      2.715240  1829A      2.718316  
    1830A      2.723733  1831A      2.724430  1832A      2.732675  
    1833A      2.742126  1834A      2.742992  1835A      2.744657  
    1836A      2.745403  1837A      2.745593  1838A      2.753377  
    1839A      2.754770  1840A      2.757262  1841A      2.758373  
    1842A      2.760191  1843A      2.761090  1844A      2.762112  
    1845A      2.769792  1846A      2.770912  1847A      2.771473  
    1848A      2.783972  1849A      2.785527  1850A      2.786784  
    1851A      2.786860  1852A      2.790206  1853A      2.803338  
    1854A      2.808581  1855A      2.809117  1856A      2.810816  
    1857A      2.815501  1858A      2.816416  1859A      2.819479  
    1860A      2.837669  1861A      2.838590  1862A      2.856803  
    1863A      2.863891  1864A      2.864280  1865A      2.873727  
    1866A      2.876213  1867A      2.880899  1868A      2.881019  
    1869A      2.908519  1870A      2.910781  1871A      2.911418  
    1872A      2.921983  1873A      2.937898  1874A      2.938980  
    1875A      2.948159  1876A      2.973650  1877A      2.974255  
    1878A      2.981510  1879A      2.984875  1880A      2.991378  
    1881A      2.992369  1882A      2.994095  1883A      2.998939  
    1884A      3.001415  1885A      3.001707  1886A      3.011212  
    1887A      3.017264  1888A      3.054757  1889A      3.059021  
    1890A      3.059306  1891A      3.063184  1892A      3.067423  
    1893A      3.071804  1894A      3.072417  1895A      3.077426  
    1896A      3.079239  1897A      3.080077  1898A      3.087800  
    1899A      3.089030  1900A      3.093475  1901A      3.093984  
    1902A      3.095087  1903A      3.096058  1904A      3.099756  
    1905A      3.108645  1906A      3.110541  1907A      3.119250  
    1908A      3.121324  1909A      3.121643  1910A      3.139170  
    1911A      3.139949  1912A      3.166583  1913A      3.197815  
    1914A      3.205234  1915A      3.205535  1916A      3.206238  
    1917A      3.207007  1918A      3.209366  1919A      3.213286  
    1920A      3.216470  1921A      3.220126  1922A      3.220534  
    1923A      3.238795  1924A      3.241698  1925A      3.242232  
    1926A      3.248915  1927A      3.304619  1928A      3.305857  
    1929A      3.313306  1930A      3.358945  1931A      3.372638  
    1932A      3.374938  1933A      3.377088  1934A      3.388944  
    1935A      3.392479  1936A      3.404009  1937A      3.407611  
    1938A      3.408371  1939A      3.414132  1940A      3.417195  
    1941A      3.424739  1942A      3.428731  1943A      3.436932  
    1944A      3.452059  1945A      3.459598  1946A      3.482186  
    1947A      3.517542  1948A      3.519301  1949A      3.527163  
    1950A      3.534481  1951A      3.549542  1952A      3.585100  
    1953A      3.586067  1954A      3.608660  1955A      3.611196  
    1956A      3.648485  1957A      3.690522  1958A      3.693971  
    1959A      3.694861  1960A      3.705333  1961A      3.722308  
    1962A      3.723571  1963A      3.786774  1964A      3.787677  
    1965A      3.816002  1966A      3.818926  1967A      3.848774  
    1968A      3.857114  1969A      3.880219  1970A      3.882594  
    1971A      3.892370  1972A      3.893631  1973A      3.902227  
    1974A      3.906592  1975A      3.913851  1976A      3.967331  
    1977A      3.969783  1978A      4.013214  1979A      4.170652  
    1980A      4.242723  1981A      4.334707  

    Final Occupation by Irrep:
              A 
    DOCC [   326 ]
    NA   [   326 ]
    NB   [   326 ]

  @DF-RHF Final Energy: -3953.64923594968423

   => Energetics <=

    Nuclear Repulsion Energy =          17885.8903736252977978
    One-Electron Energy =              -40981.7047726257223985
    Two-Electron Energy =               19142.1651630507403752
    Total Energy =                      -3953.6492359496842255

Computation Completed


Properties will be evaluated at   0.000000,   0.000000,   0.000000 [a0]

Properties computed using the SCF density matrix


 Multipole Moments:

 ------------------------------------------------------------------------------------
     Multipole            Electronic (a.u.)      Nuclear  (a.u.)        Total (a.u.)
 ------------------------------------------------------------------------------------

 L = 1.  Multiply by 2.5417464519 to convert [e a0] to [Debye]
 Dipole X            :          0.0018212            0.0004804            0.0023016
 Dipole Y            :         -1.5597390            1.8866171            0.3268781
 Dipole Z            :        -27.0848420           36.3826546            9.2978126
 Magnitude           :                                                    9.3035570

 ------------------------------------------------------------------------------------

*** tstop() called on n2cn0668 at Sat Jan 27 00:24:11 2024
Module time:
	user time   =   30404.09 seconds =     506.73 minutes
	system time =    1948.59 seconds =      32.48 minutes
	total time  =       3810 seconds =      63.50 minutes
Total time:
	user time   =   30404.09 seconds =     506.73 minutes
	system time =    1948.59 seconds =      32.48 minutes
	total time  =       3810 seconds =      63.50 minutes

  //>>>>>>>>>>>>>>>>>>>>>>>>>>>>>>>>>>>//
  //            Monomer A HF           //
  //<<<<<<<<<<<<<<<<<<<<<<<<<<<<<<<<<<<//

   => Libint2 <=

    Primary   basis highest AM E, G, H:  5, 4, 3
    Auxiliary basis highest AM E, G, H:  6, 5, 4
    Onebody   basis highest AM E, G, H:  6, 5, 4
    Solid Harmonics ordering:            gaussian

*** tstart() called on n2cn0668
*** at Sat Jan 27 00:24:11 2024

   => Loading Basis Set <=

    Name: JUN-CC-PVDZ
    Role: ORBITAL
    Keyword: BASIS
    atoms 1-2, 4-5, 10, 17-34, 41-53, 56-70, 73-89, 92-104, 109-119, 122-130 entry C          line   164 file /opt/software/pc2/EB-SW/software/PSI4/1.9-foss-2022a/share/psi4/basis/jun-cc-pvdz.gbs 
    atoms 3, 6                                                               entry N          line   198 file /opt/software/pc2/EB-SW/software/PSI4/1.9-foss-2022a/share/psi4/basis/jun-cc-pvdz.gbs 
    atoms 7-9, 11-16, 35-40, 54-55, 71-72, 90-91, 105-108, 120-121, 131-136  entry H          line    36 file /opt/software/pc2/EB-SW/software/PSI4/1.9-foss-2022a/share/psi4/basis/jun-cc-pvdz.gbs 


         ---------------------------------------------------------
                                   SCF
               by Justin Turney, Rob Parrish, Andy Simmonett
                          and Daniel G. A. Smith
                              RHF Reference
                       16 Threads,  61035 MiB Core
         ---------------------------------------------------------

  ==> Geometry <==

    Molecular point group: c1
    Full point group: C1

    Geometry (in Angstrom), charge = 1, multiplicity = 1:

       Center              X                  Y                   Z               Mass       
    ------------   -----------------  -----------------  -----------------  -----------------
         C            0.680062820275    -1.215917226251     5.550585235442    12.000000000000
         C           -0.680508179725    -1.215533226251     5.548557235442    12.000000000000
         N           -1.085639179725     0.102790773749     5.547559235442    14.003074004430
[...]
    1579A      2.163000  1580A      2.164127  1581A      2.171989  
    1582A      2.172301  1583A      2.180022  1584A      2.180654  
    1585A      2.181910  1586A      2.182565  1587A      2.188423  
    1588A      2.189381  1589A      2.189881  1590A      2.191575  
    1591A      2.192394  1592A      2.193932  1593A      2.195105  
    1594A      2.197363  1595A      2.198104  1596A      2.200344  
    1597A      2.200797  1598A      2.201625  1599A      2.201823  
    1600A      2.203762  1601A      2.204810  1602A      2.205744  
    1603A      2.209034  1604A      2.213790  1605A      2.214175  
    1606A      2.215908  1607A      2.220203  1608A      2.222444  
    1609A      2.222799  1610A      2.224742  1611A      2.224905  
    1612A      2.225234  1613A      2.228042  1614A      2.229905  
    1615A      2.232141  1616A      2.232424  1617A      2.233346  
    1618A      2.238868  1619A      2.239211  1620A      2.240000  
    1621A      2.241294  1622A      2.244281  1623A      2.247694  
    1624A      2.248308  1625A      2.248942  1626A      2.253004  
    1627A      2.261391  1628A      2.262521  1629A      2.263766  
    1630A      2.265268  1631A      2.267020  1632A      2.269731  
    1633A      2.276411  1634A      2.278490  1635A      2.282991  
    1636A      2.284448  1637A      2.287199  1638A      2.290818  
    1639A      2.291120  1640A      2.296566  1641A      2.296866  
    1642A      2.303080  1643A      2.304085  1644A      2.304390  
    1645A      2.309387  1646A      2.317084  1647A      2.319693  
    1648A      2.324691  1649A      2.324964  1650A      2.325310  
    1651A      2.327479  1652A      2.329323  1653A      2.330731  
    1654A      2.331117  1655A      2.332992  1656A      2.334227  
    1657A      2.335216  1658A      2.336132  1659A      2.339823  
    1660A      2.341548  1661A      2.342314  1662A      2.342432  
    1663A      2.344942  1664A      2.345874  1665A      2.346372  
    1666A      2.348089  1667A      2.349132  1668A      2.349496  
    1669A      2.366729  1670A      2.368577  1671A      2.373053  
    1672A      2.373668  1673A      2.383869  1674A      2.388164  
    1675A      2.390786  1676A      2.392303  1677A      2.393703  
    1678A      2.397332  1679A      2.401125  1680A      2.418469  
    1681A      2.419819  1682A      2.423890  1683A      2.427591  
    1684A      2.432220  1685A      2.442221  1686A      2.443452  
    1687A      2.452505  1688A      2.453113  1689A      2.460477  
    1690A      2.462625  1691A      2.464494  1692A      2.464683  
    1693A      2.467869  1694A      2.468296  1695A      2.471948  
    1696A      2.472205  1697A      2.475297  1698A      2.490565  
    1699A      2.491365  1700A      2.491417  1701A      2.495093  
    1702A      2.496389  1703A      2.502050  1704A      2.506966  
    1705A      2.507834  1706A      2.511548  1707A      2.515936  
    1708A      2.523883  1709A      2.539292  1710A      2.539656  
    1711A      2.540522  1712A      2.542544  1713A      2.543162  
    1714A      2.545462  1715A      2.547820  1716A      2.548877  
    1717A      2.549448  1718A      2.551558  1719A      2.556611  
    1720A      2.556786  1721A      2.564307  1722A      2.571234  
    1723A      2.571824  1724A      2.580023  1725A      2.583712  
    1726A      2.584194  1727A      2.585057  1728A      2.586276  
    1729A      2.587040  1730A      2.588963  1731A      2.589551  
    1732A      2.593230  1733A      2.593721  1734A      2.601438  
    1735A      2.601579  1736A      2.613046  1737A      2.613380  
    1738A      2.613720  1739A      2.613968  1740A      2.617802  
    1741A      2.618276  1742A      2.633009  1743A      2.640678  
    1744A      2.641740  1745A      2.643623  1746A      2.645372  
    1747A      2.647054  1748A      2.647405  1749A      2.649123  
    1750A      2.649703  1751A      2.653075  1752A      2.656020  
    1753A      2.656517  1754A      2.659331  1755A      2.664716  
    1756A      2.666083  1757A      2.666301  1758A      2.667624  
    1759A      2.670571  1760A      2.670795  1761A      2.673767  
    1762A      2.676902  1763A      2.677543  1764A      2.678585  
    1765A      2.684944  1766A      2.685926  1767A      2.687211  
    1768A      2.691342  1769A      2.691515  1770A      2.691847  
    1771A      2.692628  1772A      2.696058  1773A      2.697400  
    1774A      2.699154  1775A      2.704550  1776A      2.720933  
    1777A      2.730767  1778A      2.731038  1779A      2.731557  
    1780A      2.731830  1781A      2.732247  1782A      2.748143  
    1783A      2.752897  1784A      2.760790  1785A      2.761363  
    1786A      2.764107  1787A      2.773427  1788A      2.776012  
    1789A      2.779884  1790A      2.780584  1791A      2.783850  
    1792A      2.799420  1793A      2.799914  1794A      2.802177  
    1795A      2.802254  1796A      2.802328  1797A      2.811124  
    1798A      2.813594  1799A      2.815444  1800A      2.815719  
    1801A      2.816589  1802A      2.817163  1803A      2.828288  
    1804A      2.828913  1805A      2.832846  1806A      2.840172  
    1807A      2.840539  1808A      2.842449  1809A      2.842734  
    1810A      2.845974  1811A      2.850107  1812A      2.862260  
    1813A      2.865366  1814A      2.865853  1815A      2.870646  
    1816A      2.871876  1817A      2.875496  1818A      2.886279  
    1819A      2.895962  1820A      2.896847  1821A      2.904839  
    1822A      2.915007  1823A      2.917685  1824A      2.918151  
    1825A      2.927460  1826A      2.929620  1827A      2.929968  
    1828A      2.932854  1829A      2.935447  1830A      2.935898  
    1831A      2.960658  1832A      2.963541  1833A      2.965218  
    1834A      2.965785  1835A      2.976647  1836A      2.989622  
    1837A      2.992824  1838A      2.994643  1839A      3.018854  
    1840A      3.029733  1841A      3.030351  1842A      3.035705  
    1843A      3.039088  1844A      3.040461  1845A      3.047058  
    1846A      3.047763  1847A      3.048327  1848A      3.057750  
    1849A      3.057965  1850A      3.060913  1851A      3.064199  
    1852A      3.072962  1853A      3.108729  1854A      3.113170  
    1855A      3.113475  1856A      3.122767  1857A      3.127872  
    1858A      3.128387  1859A      3.133065  1860A      3.134484  
    1861A      3.142395  1862A      3.143322  1863A      3.148605  
    1864A      3.149399  1865A      3.149690  1866A      3.150629  
    1867A      3.153727  1868A      3.162078  1869A      3.162655  
    1870A      3.167917  1871A      3.173231  1872A      3.175367  
    1873A      3.175791  1874A      3.193348  1875A      3.194115  
    1876A      3.220279  1877A      3.252882  1878A      3.259673  
    1879A      3.261692  1880A      3.261867  1881A      3.262309  
    1882A      3.264676  1883A      3.268374  1884A      3.271533  
    1885A      3.275139  1886A      3.275783  1887A      3.293370  
    1888A      3.294418  1889A      3.297922  1890A      3.298578  
    1891A      3.304241  1892A      3.314123  1893A      3.327601  
    1894A      3.361491  1895A      3.362703  1896A      3.370445  
    1897A      3.409014  1898A      3.416409  1899A      3.430378  
    1900A      3.432915  1901A      3.436998  1902A      3.447549  
    1903A      3.451210  1904A      3.462357  1905A      3.464932  
    1906A      3.466035  1907A      3.471443  1908A      3.474464  
    1909A      3.482093  1910A      3.487066  1911A      3.494727  
    1912A      3.509247  1913A      3.529638  1914A      3.540050  
    1915A      3.574454  1916A      3.576207  1917A      3.581804  
    1918A      3.584193  1919A      3.590138  1920A      3.641907  
    1921A      3.643323  1922A      3.648015  1923A      3.665208  
    1924A      3.667437  1925A      3.705304  1926A      3.748356  
    1927A      3.749448  1928A      3.750993  1929A      3.760753  
    1930A      3.763355  1931A      3.778821  1932A      3.780375  
    1933A      3.820578  1934A      3.842148  1935A      3.843541  
    1936A      3.870978  1937A      3.871589  1938A      3.874707  
    1939A      3.904914  1940A      3.913763  1941A      3.938220  
    1942A      3.940940  1943A      3.948379  1944A      3.949438  
    1945A      3.959190  1946A      3.962053  1947A      3.965814  
    1948A      3.971596  1949A      4.024723  1950A      4.027493  
    1951A      4.071744  1952A      4.215403  1953A      4.216458  
    1954A      4.230627  1955A      4.302506  1956A      4.368251  
    1957A      4.386145  1958A      4.399779  1959A      4.493324  
    1960A      4.741469  1961A      4.784954  1962A      4.836723  
    1963A      4.856821  1964A      4.944966  1965A      5.055150  
    1966A      5.063223  1967A      5.071502  1968A      5.117113  
    1969A      5.131891  1970A      5.394062  1971A      5.426507  
    1972A      5.741588  1973A      5.755182  1974A      6.070281  
    1975A     18.205682  1976A     18.457989  1977A     18.476303  
    1978A     18.563877  1979A     18.840264  1980A     25.347399  
    1981A     25.380634  

    Final Occupation by Irrep:
              A 
    DOCC [   300 ]
    NA   [   300 ]
    NB   [   300 ]

  @DF-RHF Final Energy: -3650.33827862214594

   => Energetics <=

    Nuclear Repulsion Energy =          15611.4211649754324753
    One-Electron Energy =              -36072.1011606816537096
    Two-Electron Energy =               16810.3417170840766630
    Total Energy =                      -3650.3382786221445713

Computation Completed


Properties will be evaluated at   0.000000,   0.000000,   0.000000 [a0]

Properties computed using the SCF density matrix


 Multipole Moments:

 ------------------------------------------------------------------------------------
     Multipole            Electronic (a.u.)      Nuclear  (a.u.)        Total (a.u.)
 ------------------------------------------------------------------------------------

 L = 1.  Multiply by 2.5417464519 to convert [e a0] to [Debye]
 Dipole X            :         -0.0009319            0.0002112           -0.0007207
 Dipole Y            :          0.0041886           -0.0044281           -0.0002395
 Dipole Z            :        518.6678552         -518.6774076           -0.0095525
 Magnitude           :                                                    0.0095826

 ------------------------------------------------------------------------------------

*** tstop() called on n2cn0668 at Sat Jan 27 01:44:56 2024
Module time:
	user time   =   20894.51 seconds =     348.24 minutes
	system time =    1403.17 seconds =      23.39 minutes
	total time  =       3036 seconds =      50.60 minutes
Total time:
	user time   =   57514.78 seconds =     958.58 minutes
	system time =    3822.64 seconds =      63.71 minutes
	total time  =       8655 seconds =     144.25 minutes
  Constructing Basis Sets for SAPT...

   => Loading Basis Set <=

    Name: (JUN-CC-PVDZ AUX)
    Role: RIFIT
    Keyword: DF_BASIS_SAPT
    atoms 1-2, 4-5, 10, 17-34, 41-53, 56-70, 73-89, 92-104, 109-119, 122-130 entry C          line   100 file /opt/software/pc2/EB-SW/software/PSI4/1.9-foss-2022a/share/psi4/basis/jun-cc-pvdz-ri.gbs 
    atoms 3, 6                                                               entry N          line   144 file /opt/software/pc2/EB-SW/software/PSI4/1.9-foss-2022a/share/psi4/basis/jun-cc-pvdz-ri.gbs 
    atoms 7-9, 11-16, 35-40, 54-55, 71-72, 90-91, 105-108, 120-121, 131-136  entry H          line    30 file /opt/software/pc2/EB-SW/software/PSI4/1.9-foss-2022a/share/psi4/basis/jun-cc-pvdz-ri.gbs 

   => Loading Basis Set <=

    Name: (JUN-CC-PVDZ AUX)
    Role: JKFIT
    Keyword: DF_BASIS_ELST
    atoms 1-2, 4-5, 10, 17-34, 41-53, 56-70, 73-89, 92-104, 109-119, 122-130 entry C          line   146 file /opt/software/pc2/EB-SW/software/PSI4/1.9-foss-2022a/share/psi4/basis/jun-cc-pvdz-jkfit.gbs 
    atoms 3, 6                                                               entry N          line   202 file /opt/software/pc2/EB-SW/software/PSI4/1.9-foss-2022a/share/psi4/basis/jun-cc-pvdz-jkfit.gbs 
    atoms 7-9, 11-16, 35-40, 54-55, 71-72, 90-91, 105-108, 120-121, 131-136  entry H          line    70 file /opt/software/pc2/EB-SW/software/PSI4/1.9-foss-2022a/share/psi4/basis/jun-cc-pvdz-jkfit.gbs 


  //>>>>>>>>>>>>>>>>>>>>>>>>>>>>>>>>>>>//
  //               SSAPT0              //
  //<<<<<<<<<<<<<<<<<<<<<<<<<<<<<<<<<<<//


*** tstart() called on n2cn0668
*** at Sat Jan 27 01:44:57 2024

        SAPT0  
    Ed Hohenstein
     6 June 2009

      Orbital Information
  --------------------------
    NSO        =      2019
    NMO        =      1981
    NRI        =      7157
    NRI (Elst) =      8896
    NOCC A     =        26
    NOCC B     =       300
    FOCC A     =         7
    FOCC B     =        96
    NVIR A     =      1955
    NVIR B     =      1681

    Elst10,r            =    -0.009462539214 [Eh]
    Exch10              =     0.000000247635 [Eh]
    Exch10 (S^2)        =     0.000000247637 [Eh]

    Iter     Energy [mEh]          dE [mEh]         Residual      Time [s]
       1      -0.01477761       0.014777609       1.029726172           185
       2      -0.01356151      -0.001216103       0.215426997           409
       3      -0.01462921       0.001067708       0.035076016           620
       4      -0.01461153      -0.000017685       0.014653170           854
       5      -0.01459502      -0.000016506       0.002894311          1109
       6      -0.01459587       0.000000848       0.001339860          1284
       7      -0.01459653       0.000000656       0.000558782          1472
       8      -0.01459648      -0.000000049       0.000221910          1662
       9      -0.01459640      -0.000000080       0.000077468          1859
      10      -0.01459639      -0.000000007       0.000018065          2054
      11      -0.01459640       0.000000009       0.000006054          2272
      12      -0.01459640       0.000000001       0.000001993          2453
      13      -0.01459640      -0.000000001       0.000000796          2649

    CHF Iterations converged


    Iter     Energy [mEh]          dE [mEh]         Residual      Time [s]
       1      -6.06407487       6.064074868      42.609906590           206
       2      -3.90875328      -2.155321589       4.973819282           436
       3      -3.89201900      -0.016734275       1.690403755           660
       4      -3.96211246       0.070093451       0.528973741           897
       5      -3.97147225       0.009359790       0.184322891          1107
       6      -3.97073723      -0.000735018       0.123124872          1364
       7      -3.96858851      -0.002148719       0.055657602          1595
       8      -3.96877208       0.000183569       0.032614364          1825
       9      -3.96931981       0.000547729       0.020441461          2158
      10      -3.96916241      -0.000157394       0.015508190          2399
      11      -3.96906881      -0.000093602       0.006576811          2634
      12      -3.96907254       0.000003734       0.003189082          2898
      13      -3.96909336       0.000020813       0.001408828          3167
      14      -3.96909931       0.000005956       0.000758927          3435
      15      -3.96909575      -0.000003562       0.000511023          3705
      16      -3.96909193      -0.000003818       0.000215136          3976
      17      -3.96909400       0.000002066       0.000080983          4259
      18      -3.96909435       0.000000348       0.000033680          4532
      19      -3.96909415      -0.000000196       0.000022079          4823
      20      -3.96909403      -0.000000126       0.000009927          5079
      21      -3.96909408       0.000000049       0.000004648          5362
      22      -3.96909410       0.000000021       0.000001943          5639
      23      -3.96909409      -0.000000004       0.000000698          5922

    CHF Iterations converged

    Ind20,r (A<-B)      =    -0.000014596400 [Eh]
    Ind20,r (B<-A)      =    -0.003969094092 [Eh]
    Ind20,r             =    -0.003983690492 [Eh]
    Exch-Ind20,r (A<-B) =     0.000000409548 [Eh]
    Exch-Ind20,r (B<-A) =     0.000001507351 [Eh]
    Exch-Ind20,r        =     0.000001916899 [Eh]
    Disp20              =    -0.002982971985 [Eh]
    Disp20 (SS)         =    -0.001491485992 [Eh]
    Disp20 (OS)         =    -0.001491485992 [Eh]
    Exch-Disp20         =     0.000001299267 [Eh]
    Exch-Disp20 (SS)    =     0.000000970992 [Eh]
    Exch-Disp20 (OS)    =     0.000000328275 [Eh]

    SAPT Results 
  --------------------------------------------------------------------------------------------------------
    Electrostatics                 -9.46253921 [mEh]      -5.93783300 [kcal/mol]     -24.84389328 [kJ/mol]
      Elst10,r                     -9.46253921 [mEh]      -5.93783300 [kcal/mol]     -24.84389328 [kJ/mol]

    Exchange                        0.00024764 [mEh]       0.00015539 [kcal/mol]       0.00065017 [kJ/mol]
      Exch10                        0.00024764 [mEh]       0.00015539 [kcal/mol]       0.00065017 [kJ/mol]
      Exch10(S^2)                   0.00024764 [mEh]       0.00015539 [kcal/mol]       0.00065017 [kJ/mol]

    Induction                      -4.05652384 [mEh]      -2.54550714 [kcal/mol]     -10.65040187 [kJ/mol]
      Ind20,r                      -3.98369049 [mEh]      -2.49980352 [kcal/mol]     -10.45917795 [kJ/mol]
      Exch-Ind20,r                  0.00191690 [mEh]       0.00120287 [kcal/mol]       0.00503282 [kJ/mol]
      delta HF,r (2)               -0.07475024 [mEh]      -0.04690649 [kcal/mol]      -0.19625674 [kJ/mol]

    Dispersion                     -2.98167272 [mEh]      -1.87102788 [kcal/mol]      -7.82838064 [kJ/mol]
      Disp20                       -2.98297198 [mEh]      -1.87184318 [kcal/mol]      -7.83179187 [kJ/mol]
      Exch-Disp20                   0.00129927 [mEh]       0.00081530 [kcal/mol]       0.00341122 [kJ/mol]
      Disp20 (SS)                  -1.49148599 [mEh]      -0.93592159 [kcal/mol]      -3.91589593 [kJ/mol]
      Disp20 (OS)                  -1.49148599 [mEh]      -0.93592159 [kcal/mol]      -3.91589593 [kJ/mol]
      Exch-Disp20 (SS)              0.00097099 [mEh]       0.00060931 [kcal/mol]       0.00254934 [kJ/mol]
      Exch-Disp20 (OS)              0.00032827 [mEh]       0.00020600 [kcal/mol]       0.00086188 [kJ/mol]

  Total HF                        -13.51881542 [mEh]      -8.48318475 [kcal/mol]     -35.49364499 [kJ/mol]
  Total SAPT0                     -16.50048814 [mEh]     -10.35421263 [kcal/mol]     -43.32202563 [kJ/mol]

  Special recipe for scaled SAPT0 (see Manual):
    Electrostatics sSAPT0          -9.46253921 [mEh]      -5.93783300 [kcal/mol]     -24.84389328 [kJ/mol]
    Exchange sSAPT0                 0.00024764 [mEh]       0.00015539 [kcal/mol]       0.00065017 [kJ/mol]
    Induction sSAPT0               -4.05652384 [mEh]      -2.54550714 [kcal/mol]     -10.65040187 [kJ/mol]
    Dispersion sSAPT0              -2.98167272 [mEh]      -1.87102788 [kcal/mol]      -7.82838064 [kJ/mol]
  Total sSAPT0                    -16.50048814 [mEh]     -10.35421263 [kcal/mol]     -43.32202563 [kJ/mol]
  --------------------------------------------------------------------------------------------------------

*** tstop() called on n2cn0668 at Sat Jan 27 08:43:42 2024
Module time:
	user time   =   75904.90 seconds =    1265.08 minutes
	system time =    3662.11 seconds =      61.04 minutes
	total time  =      25125 seconds =     418.75 minutes
Total time:
	user time   =  133421.20 seconds =    2223.69 minutes
	system time =    7484.75 seconds =     124.75 minutes
	total time  =      33781 seconds =     563.02 minutes

    Psi4 stopped on: Saturday, 27 January 2024 08:43AM
    Psi4 wall time for execution: 9:23:01.84

*** Psi4 exiting successfully. Buy a developer a beer!
