
    -----------------------------------------------------------------------
          Psi4: An Open-Source Ab Initio Electronic Structure Package
                               Psi4 1.9 release

                         Git: Rev {} zzzzzzz 


    D. G. A. Smith, L. A. Burns, A. C. Simmonett, R. M. Parrish,
    M. C. Schieber, R. Galvelis, P. Kraus, H. Kruse, R. Di Remigio,
    A. Alenaizan, A. M. James, S. Lehtola, J. P. Misiewicz, M. Scheurer,
    R. A. Shaw, J. B. Schriber, Y. Xie, Z. L. Glick, D. A. Sirianni,
    J. S. O'Brien, J. M. Waldrop, A. Kumar, E. G. Hohenstein,
    B. P. Pritchard, B. R. Brooks, H. F. Schaefer III, A. Yu. Sokolov,
    K. Patkowski, A. E. DePrince III, U. Bozkaya, R. A. King,
    F. A. Evangelista, J. M. Turney, T. D. Crawford, C. D. Sherrill,
    J. Chem. Phys. 152(18) 184108 (2020). https://doi.org/10.1063/5.0006002

                            Additional Code Authors
    E. T. Seidl, C. L. Janssen, E. F. Valeev, M. L. Leininger,
    J. F. Gonthier, R. M. Richard, H. R. McAlexander, M. Saitow, X. Wang,
    P. Verma, M. H. Lechner, A. Jiang, S. Behnle, A. G. Heide,
    M. F. Herbst, and D. L. Poole

             Previous Authors, Complete List of Code Contributors,
                       and Citations for Specific Modules
    https://github.com/psi4/psi4/blob/master/codemeta.json
    https://github.com/psi4/psi4/graphs/contributors
    http://psicode.org/psi4manual/master/introduction.html#citing-psifour

    -----------------------------------------------------------------------


    Psi4 started on: Wednesday, 24 January 2024 06:29PM

    Process ID: 1899638
    Host:       n2cn0939
    PSIDATADIR: /opt/software/pc2/EB-SW/software/PSI4/1.9-foss-2022a/share/psi4
    Memory:     500.0 MiB
    Threads:    16
    
  ==> Input File <==

--------------------------------------------------------------------------
memory 47 GB # how much memory is available ! Depends on the nodes/cores !

molecule dimer {
# monomer A
+1 1    # Charge and multiplicity
C  0.680067 -1.215929 7.208042
C -0.680504 -1.215545 7.206014
N -1.085635  0.102779 7.205016
C  0.000108  0.884180 7.201740
C -2.477365  0.570758 7.155610
N  1.085222  0.102779 7.205016
H  1.385146 -2.033368 7.215870
H -1.385302 -2.033214 7.206204
H -0.000009  1.965269 7.199993
C  2.478117  0.567877 7.221908
H  2.490592  1.658130 7.194563
H  2.967028  0.220701 8.135354
H  3.001428  0.176405 6.346425
H -2.857359  0.490799 6.133539
H -3.082679 -0.042306 7.825694
H -2.518128  1.610706 7.482594
--
# monomer B
0 1     # Charge and multiplicity
C   -3.66844126402057      7.80375217008252      0.00190004133558
C   -4.84759871934653      7.13124183134024     -0.00046653359696
C   -4.89495929917518      5.69633040353158     -0.00103944469517
C   -3.65374067877320      4.98073034095895      0.00662099703436
C   -2.40942512149445      7.11398103667468      0.00209438359570
C   -2.42547734410473      5.68112195090346     -0.00491050527438
C   -1.19474401643570      7.78614419430947      0.00356656413763
C   0.03795902893699      7.09942164575698      0.00139585983271
C   0.03033258741920      5.66948955970466     -0.00408752508301
C   -1.20098450790502      4.96927034791531      0.00488220885047
C   1.27795782581485      7.77285944319479      0.00277170839332
C   2.48535808472416      7.08769688523756      0.00049722048857
C   2.48612868491717      5.65477081024076     -0.00644052849921
C   1.25408291964399      4.95607811366431      0.00518741308898
C   3.75171459140595      7.76391215098033      0.00062407186893
C   4.92356605618520      7.07878077698995     -0.00143240883900
C   4.95560727132542      5.64344746336949     -0.00159282164606
C   3.70680153420475      4.94121020833308      0.00349873852374
H   -3.65852113775815      8.89082741913536      0.00358502958574
H   -1.18921332975660      8.87412108735996      0.00753844057883
H   1.28429423888630      8.86083343548850      0.00693053253426
H   3.75354208679975      8.85103527897216      0.00214659618464
H   5.86995870320703      7.61379483465560     -0.00235777588134
H   -5.78823170750226      7.67630221293400     -0.00202638095293
C   -6.09197395869619      4.99326001364347     -0.00291168518608
C   -6.12866148031747      3.58258016879823     -0.00171050815740
C   -3.66457974004527      3.56418217974434     -0.00463560277484
C   -4.89429820469869      2.86108077590057      0.00453338221034
C   -2.43733499489796      2.84761165708481      0.00719617576166
C   -1.20922785759670      3.54788693497833     -0.00648285103018
C   1.24714157216223      3.53468075142962     -0.00729145743546
C   0.01517603956900      2.83311183930540      0.00439272578912
C   2.46764517244071      2.82128997725533      0.00449278391269
C   3.70254947457969      3.52466015442405     -0.00899517692985
C   6.14498038638375      4.92757236613191     -0.00282626685777
C   6.16658835886151      3.51658447594213     -0.00065971342101
C   4.92460995845939      2.80840792535402      0.00587903281610
H   7.08990550964105      5.46688776622306     -0.00658814770723
H   -7.03104175110130      5.54268795285765     -0.00714490013730
C   -7.33969804112295      2.85841153457957     -0.00333767559888
C   -7.36488195805880      1.47032337158330     -0.00157213747140
C   -4.90350460894690      1.44442681216000     -0.00628840166334
C   -6.13225715261081      0.73993935705394      0.00600164231964
C   -3.67687480051673      0.72669714267312      0.00433931473643
C   -2.44565658606518      1.42964113326212     -0.00597039546461
C   -1.22360068130162      0.71532450163492      0.00545886906656
C   0.00763786931376      1.41738314923765      0.00392452278437
C   1.23121980774686      0.70211669058719     -0.01490206287210
C   2.46082110053113      1.40329203612573      0.00460244601878
C   3.68443025419614      0.68719842821222      0.00377365974158
C   4.91870890153864      1.39173456118907     -0.00862816189375
C   7.36980207796101      2.77948220318441     -0.00242013321349
C   7.38016266612146      1.39121750785509     -0.00087345036788
C   6.13979953912259      0.67411862320065      0.00545489144369
H   -8.27919079934664      3.40711804112415     -0.00763522772059
H   8.31511347147953      3.31811809662368     -0.00663070901292
C   -8.59175593758115      0.72483255304480     -0.00123170985383
C   -8.59902460370342     -0.63263980622873      0.00089141472904
C   -6.13981313911873     -0.67413663715361     -0.00609792660607
C   -7.38018411213749     -1.39126618958160      0.00131813493501
C   -4.91868448025621     -1.39175501803000      0.00624257154343
C   -3.68443829568458     -0.68723731573599     -0.00478966852105
C   -2.46081704024768     -1.40334517882457      0.00575341766833
C   -1.23116201232071     -0.70217386488055     -0.00636696112346
C   -0.00756962538737     -1.41741884941102      0.00108956317991
C   1.22364771588843     -0.71527537726392      0.01109518512883
C   2.44567064933149     -1.42964328900682     -0.00065482763106
C   3.67686670284649     -0.72670743155550     -0.00479541202602
C   6.13224884641929     -0.73997883984993     -0.00632338623858
C   4.90351914550401     -1.44445752054090      0.00751768830159
C   8.59901484869081      0.63260386666793     -0.00101133422380
C   8.59174548810050     -0.72485086719319      0.00072504603735
C   7.36486276438985     -1.47033266560598      0.00049486934466
H   -9.52830597181814      1.27684744919284     -0.00270163681798
H   9.54141097460619      1.17457248844457     -0.00206336648518
C   -7.36983790976868     -2.77954514593389      0.00312634335708
C   -4.92459910905015     -2.80843725734101     -0.00460528907921
C   -6.16662249566744     -3.51665219282533      0.00169655107992
C   -3.70251035970491     -3.52468154912026      0.00571878010666
C   -2.46764698511392     -2.82132596280400     -0.00632585824990
C   -0.01513347410770     -2.83314164539971     -0.00604426974092
C   -1.24712184122656     -3.53473217556300      0.00551968366725
C   1.20924506964357     -3.54791467864352      0.00805871345849
C   2.43733602215464     -2.84764173817541     -0.00608104485234
C   4.89430234377080     -2.86112296828604     -0.00526030478103
C   3.66461525504104     -3.56421984553201      0.00761911515957
C   6.12863901474565     -3.58258405771778      0.00096495711699
C   7.33967266469532     -2.85841330737039      0.00248018319869
H   -9.54144911125902     -1.17456346666430      0.00226083090216
H   9.52826186807155     -1.27691907390448      0.00197485379837
H   -8.31516504384864     -3.31814985321231      0.00729857188773
H   8.27915514249207     -3.40714078989363      0.00681973918158
C   -6.14499418870218     -4.92764727278338      0.00302254913999
C   -3.70678334799751     -4.94126171411716     -0.00679841894792
C   -4.95559005800169     -5.64349397349412      0.00116871569699
C   -2.48612132622665     -5.65478557440947      0.00614125209662
C   -1.25405833548005     -4.95612205000132     -0.00503435388927
C   1.20101257386816     -4.96928038819302     -0.00385322963129
C   -0.03033667441341     -5.66952030313900      0.00398997003238
C   3.65375010132847     -4.98074377541453     -0.00309522988330
C   2.42549269587528     -5.68117463552727      0.00628170066869
C   6.09196561781097     -4.99325796338655      0.00325918379042
C   4.89497644461045     -5.69634842095790      0.00202298796027
H   -7.08989238804069     -5.46699984223871      0.00742531082125
H   7.03105520920009     -5.54265853633254      0.00683896355417
C   -4.92354532219813     -7.07882109967734      0.00061394679214
C   -2.48534208823777     -7.08772807792913     -0.00189594564379
C   -3.75168589177895     -7.76394715763627     -0.00170126671874
C   -0.03794895698805     -7.09946487446944     -0.00168022049625
C   -1.27795610040136     -7.77290438466689     -0.00366491325785
C   2.40944432072629     -7.11402201200282     -0.00081701968533
C   1.19474993715296     -7.78618536556242     -0.00296931056689
C   4.84762105249800     -7.13126211057943      0.00168979497423
C   3.66847160587561     -7.80378799294376     -0.00065863938960
H   -5.86994035041618     -7.61383059804164      0.00215798365757
H   5.78824962538815     -7.67633218931421      0.00281691445618
H   -3.75352693944918     -8.85107156923607     -0.00353718114765
H   -1.28430440589466     -8.86087539249706     -0.00809229711623
H   1.18922157469537     -8.87416062058945     -0.00706194725726
H   3.65854661482387     -8.89086063405326     -0.00231318081200

    units angstrom      # Angstroms are the default
    no_reorient         # Geometry fixed, default
    symmetry c1         # C1 symmetry, default
}

set {
    scf_type DF         # Density fitting, faster than exact integrals
    freeze_core True    # Freeze core electrons
    basis jun-cc-pVDZ   # Jun-cc-pVDZ basis set, recommended for sSAPT0 in https://doi.org/10.1063/1.4867135
}

energy('ssapt0')        # Compute sSAPT0 energy, includes also SAPT0
--------------------------------------------------------------------------

  Memory set to  43.772 GiB by Python driver.

Scratch directory: /tmp/
   => Loading Basis Set <=

    Name: JUN-CC-PVDZ
    Role: ORBITAL
    Keyword: BASIS
    atoms 1-2, 4-5, 10, 17-34, 41-53, 56-70, 73-89, 92-104, 109-119, 122-130 entry C          line   164 file /opt/software/pc2/EB-SW/software/PSI4/1.9-foss-2022a/share/psi4/basis/jun-cc-pvdz.gbs 
    atoms 3, 6                                                               entry N          line   198 file /opt/software/pc2/EB-SW/software/PSI4/1.9-foss-2022a/share/psi4/basis/jun-cc-pvdz.gbs 
    atoms 7-9, 11-16, 35-40, 54-55, 71-72, 90-91, 105-108, 120-121, 131-136  entry H          line    36 file /opt/software/pc2/EB-SW/software/PSI4/1.9-foss-2022a/share/psi4/basis/jun-cc-pvdz.gbs 

   => Loading Basis Set <=

    Name: JUN-CC-PVDZ
    Role: ORBITAL
    Keyword: BASIS
    atoms 1-2, 4-5, 10, 17-34, 41-53, 56-70, 73-89, 92-104, 109-119, 122-130 entry C          line   164 file /opt/software/pc2/EB-SW/software/PSI4/1.9-foss-2022a/share/psi4/basis/jun-cc-pvdz.gbs 
    atoms 3, 6                                                               entry N          line   198 file /opt/software/pc2/EB-SW/software/PSI4/1.9-foss-2022a/share/psi4/basis/jun-cc-pvdz.gbs 
    atoms 7-9, 11-16, 35-40, 54-55, 71-72, 90-91, 105-108, 120-121, 131-136  entry H          line    36 file /opt/software/pc2/EB-SW/software/PSI4/1.9-foss-2022a/share/psi4/basis/jun-cc-pvdz.gbs 


  //>>>>>>>>>>>>>>>>>>>>>>>>>>>>>>>>>>>//
  //              Dimer HF             //
  //<<<<<<<<<<<<<<<<<<<<<<<<<<<<<<<<<<<//

   => Libint2 <=

    Primary   basis highest AM E, G, H:  5, 4, 3
    Auxiliary basis highest AM E, G, H:  6, 5, 4
    Onebody   basis highest AM E, G, H:  6, 5, 4
    Solid Harmonics ordering:            gaussian

*** tstart() called on n2cn0939
*** at Wed Jan 24 18:29:10 2024

   => Loading Basis Set <=

    Name: JUN-CC-PVDZ
    Role: ORBITAL
    Keyword: BASIS
    atoms 1-2, 4-5, 10, 17-34, 41-53, 56-70, 73-89, 92-104, 109-119, 122-130 entry C          line   164 file /opt/software/pc2/EB-SW/software/PSI4/1.9-foss-2022a/share/psi4/basis/jun-cc-pvdz.gbs 
    atoms 3, 6                                                               entry N          line   198 file /opt/software/pc2/EB-SW/software/PSI4/1.9-foss-2022a/share/psi4/basis/jun-cc-pvdz.gbs 
    atoms 7-9, 11-16, 35-40, 54-55, 71-72, 90-91, 105-108, 120-121, 131-136  entry H          line    36 file /opt/software/pc2/EB-SW/software/PSI4/1.9-foss-2022a/share/psi4/basis/jun-cc-pvdz.gbs 


         ---------------------------------------------------------
                                   SCF
               by Justin Turney, Rob Parrish, Andy Simmonett
                          and Daniel G. A. Smith
                              RHF Reference
                       16 Threads,  44822 MiB Core
         ---------------------------------------------------------

  ==> Geometry <==

    Molecular point group: c1
    Full point group: C1

    Geometry (in Angstrom), charge = 1, multiplicity = 1:

       Center              X                  Y                   Z               Mass       
    ------------   -----------------  -----------------  -----------------  -----------------
         C            0.680062820275    -1.215917226251     6.659094504741    12.000000000000
         C           -0.680508179725    -1.215533226251     6.657066504741    12.000000000000
         N           -1.085639179725     0.102790773749     6.656068504741    14.003074004430
         C            0.000103820275     0.884191773749     6.652792504741    12.000000000000
         C           -2.477369179725     0.570769773749     6.606662504741    12.000000000000
         N            1.085217820275     0.102790773749     6.656068504741    14.003074004430
         H            1.385141820275    -2.033356226251     6.666922504741     1.007825032230
         H           -1.385306179725    -2.033202226251     6.657256504741     1.007825032230
         H           -0.000013179725     1.965280773749     6.651045504741     1.007825032230
         C            2.478112820275     0.567888773749     6.672960504741    12.000000000000
         H            2.490587820275     1.658141773750     6.645615504741     1.007825032230
         H            2.967023820275     0.220712773749     7.586406504741     1.007825032230
         H            3.001423820275     0.176416773749     5.797477504741     1.007825032230
         H           -2.857363179725     0.490810773749     5.584591504741     1.007825032230
         H           -3.082683179725    -0.042294226251     7.276746504741     1.007825032230
         H           -2.518132179725     1.610717773749     6.933646504741     1.007825032230
         C           -3.668445443746     7.803763943832    -0.547047453923    12.000000000000
         C           -4.847602899072     7.131253605090    -0.549414028856    12.000000000000
         C           -4.894963478901     5.696342177281    -0.549986939954    12.000000000000
         C           -3.653744858499     4.980742114708    -0.542326498224    12.000000000000
         C           -2.409429301220     7.113992810424    -0.546853111663    12.000000000000
         C           -2.425481523830     5.681133724653    -0.553858000533    12.000000000000
         C           -1.194748196161     7.786155968059    -0.545380931121    12.000000000000
         C            0.037954849212     7.099433419506    -0.547551635426    12.000000000000
         C            0.030328407694     5.669501333454    -0.553035020342    12.000000000000
         C           -1.200988687630     4.969282121665    -0.544065286408    12.000000000000
         C            1.277953646089     7.772871216944    -0.546175786866    12.000000000000
         C            2.485353904999     7.087708658987    -0.548450274770    12.000000000000
         C            2.486124505192     5.654782583990    -0.555388023758    12.000000000000
         C            1.254078739919     4.956089887414    -0.543760082170    12.000000000000
         C            3.751710411681     7.763923924730    -0.548323423390    12.000000000000
         C            4.923561876460     7.078792550739    -0.550379904098    12.000000000000
         C            4.955603091600     5.643459237119    -0.550540316905    12.000000000000
         C            3.706797354479     4.941221982083    -0.545448756735    12.000000000000
         H           -3.658525317484     8.890839192885    -0.545362465673     1.007825032230
         H           -1.189217509482     8.874132861109    -0.541409054680     1.007825032230
         H            1.284290059161     8.860845209238    -0.542016962725     1.007825032230
         H            3.753537907074     8.851047052722    -0.546800899074     1.007825032230
         H            5.869954523482     7.613806608405    -0.551305271140     1.007825032230
         H           -5.788235887228     7.676313986684    -0.550973876212     1.007825032230
         C           -6.091978138422     4.993271787393    -0.551859180445    12.000000000000
         C           -6.128665660043     3.582591942548    -0.550658003416    12.000000000000
         C           -3.664583919771     3.564193953494    -0.553583098034    12.000000000000
         C           -4.894302384424     2.861092549650    -0.544414113049    12.000000000000
         C           -2.437339174623     2.847623430834    -0.541751319497    12.000000000000
         C           -1.209232037322     3.547898708728    -0.555430346289    12.000000000000
         C            1.247137392437     3.534692525179    -0.556238952694    12.000000000000
         C            0.015171859844     2.833123613055    -0.544554769470    12.000000000000
         C            2.467640992715     2.821301751005    -0.544454711346    12.000000000000
         C            3.702545294854     3.524671928174    -0.557942672189    12.000000000000
         C            6.144976206658     4.927584139881    -0.551773762117    12.000000000000
         C            6.166584179136     3.516596249692    -0.549607208680    12.000000000000
         C            4.924605778734     2.808419699104    -0.543068462443    12.000000000000
         H            7.089901329916     5.466899539973    -0.555535642966     1.007825032230
         H           -7.031045930827     5.542699726607    -0.556092395396     1.007825032230
         C           -7.339702220848     2.858423308329    -0.552285170858    12.000000000000
         C           -7.364886137784     1.470335145333    -0.550519632730    12.000000000000
         C           -4.903508788672     1.444438585909    -0.555235896922    12.000000000000
         C           -6.132261332336     0.739951130803    -0.542945852939    12.000000000000
         C           -3.676878980242     0.726708916423    -0.544608180522    12.000000000000
         C           -2.445660765791     1.429652907012    -0.554917890723    12.000000000000
         C           -1.223604861027     0.715336275384    -0.543488626192    12.000000000000
         C            0.007633689588     1.417394922987    -0.545022972474    12.000000000000
         C            1.231215628021     0.702128464337    -0.563849558131    12.000000000000
         C            2.460816920806     1.403303809875    -0.544345049240    12.000000000000
         C            3.684426074471     0.687210201962    -0.545173835517    12.000000000000
         C            4.918704721813     1.391746334939    -0.557575657153    12.000000000000
         C            7.369797898236     2.779493976934    -0.551367628472    12.000000000000
         C            7.380158486396     1.391229281605    -0.549820945627    12.000000000000
         C            6.139795359397     0.674130396950    -0.543492603815    12.000000000000
         H           -8.279194979072     3.407129814874    -0.556582722979     1.007825032230
         H            8.315109291754     3.318129870373    -0.555578204272     1.007825032230
         C           -8.591760117307     0.724844326794    -0.550179205113    12.000000000000
         C           -8.599028783429    -0.632628032479    -0.548056080530    12.000000000000
         C           -6.139817318844    -0.674124863404    -0.555045421865    12.000000000000
         C           -7.380188291863    -1.391254415832    -0.547629360324    12.000000000000
         C           -4.918688659982    -1.391743244281    -0.542704923715    12.000000000000
         C           -3.684442475410    -0.687225541986    -0.553737163780    12.000000000000
         C           -2.460821219973    -1.403333405075    -0.543194077591    12.000000000000
         C           -1.231166192046    -0.702162091131    -0.555314456382    12.000000000000
         C           -0.007573805113    -1.417407075662    -0.547857932079    12.000000000000
         C            1.223643536163    -0.715263603514    -0.537852310130    12.000000000000
         C            2.445666469606    -1.429631515257    -0.549602322890    12.000000000000
         C            3.676862523121    -0.726695657806    -0.553742907285    12.000000000000
         C            6.132244666694    -0.739967066100    -0.555270881497    12.000000000000
         C            4.903514965779    -1.444445746791    -0.541429806957    12.000000000000
         C            8.599010668965     0.632615640417    -0.549958829483    12.000000000000
         C            8.591741308375    -0.724839093444    -0.548222449221    12.000000000000
         C            7.364858584664    -1.470320891856    -0.548452625914    12.000000000000
         H           -9.528310151544     1.276859222942    -0.551649132077     1.007825032230
         H            9.541406794881     1.174584262194    -0.551010861744     1.007825032230
         C           -7.369842089494    -2.779533372184    -0.545821151902    12.000000000000
         C           -4.924603288776    -2.808425483592    -0.553552784338    12.000000000000
         C           -6.166626675393    -3.516640419076    -0.547250944179    12.000000000000
         C           -3.702514539430    -3.524669775371    -0.543228715152    12.000000000000
         C           -2.467651164839    -2.821314189055    -0.555273353509    12.000000000000
         C           -0.015137653833    -2.833129871650    -0.554991765000    12.000000000000
         C           -1.247126020952    -3.534720401814    -0.543427811592    12.000000000000
         C            1.209240889918    -3.547902904894    -0.540888781800    12.000000000000
         C            2.437331842429    -2.847629964426    -0.555028540111    12.000000000000
         C            4.894298164045    -2.861111194537    -0.554207800040    12.000000000000
         C            3.664611075316    -3.564208071783    -0.541328380099    12.000000000000
         C            6.128634835020    -3.582572283968    -0.547982538142    12.000000000000
         C            7.339668484970    -2.858401533621    -0.546467312060    12.000000000000
         H           -9.541453290984    -1.174551692915    -0.546686664357     1.007825032230
         H            9.528257688346    -1.276907300155    -0.546972641460     1.007825032230
         H           -8.315169223574    -3.318138079463    -0.541648923371     1.007825032230
         H            8.279150962767    -3.407129016144    -0.542127756077     1.007825032230
         C           -6.144998368428    -4.927635499034    -0.545924946119    12.000000000000
         C           -3.706787527723    -4.941249940368    -0.555745914207    12.000000000000
         C           -4.955594237727    -5.643482199745    -0.547778779562    12.000000000000
         C           -2.486125505952    -5.654773800660    -0.542806243162    12.000000000000
         C           -1.254062515205    -4.956110276252    -0.553981849148    12.000000000000
         C            1.201008394143    -4.969268614444    -0.552800724890    12.000000000000
         C           -0.030340854139    -5.669508529390    -0.544957525226    12.000000000000
         C            3.653745921603    -4.980732001665    -0.552042725142    12.000000000000
         C            2.425488516150    -5.681162861778    -0.542665794590    12.000000000000
         C            6.091961438086    -4.993246189637    -0.545688311468    12.000000000000
         C            4.894972264885    -5.696336647208    -0.546924507299    12.000000000000
         H           -7.089896567766    -5.466988068489    -0.541522184438     1.007825032230
         H            7.031051029475    -5.542646762583    -0.542108531705     1.007825032230
         C           -4.923549501924    -7.078809325928    -0.548333548467    12.000000000000
         C           -2.485346267963    -7.087716304180    -0.550843440903    12.000000000000
         C           -3.751690071504    -7.763935383887    -0.550648761978    12.000000000000
         C           -0.037953136713    -7.099453100720    -0.550627715755    12.000000000000
         C           -1.277960280127    -7.772892610917    -0.552612408517    12.000000000000
         C            2.409440141001    -7.114010238253    -0.549764514944    12.000000000000
         C            1.194745757428    -7.786173591813    -0.551916805826    12.000000000000
         C            4.847616872773    -7.131250336830    -0.547257700285    12.000000000000
         C            3.668467426150    -7.803776219194    -0.549606134648    12.000000000000
         H           -5.869944530142    -7.613818824292    -0.546789511601     1.007825032230
         H            5.788245445663    -7.676320415565    -0.546130580803     1.007825032230
         H           -3.753531119175    -8.851059795487    -0.552484676406     1.007825032230
         H           -1.284308585620    -8.860863618748    -0.557039792375     1.007825032230
         H            1.189217394970    -8.874148846840    -0.556009442516     1.007825032230
         H            3.658542435098    -8.890848860304    -0.551260676071     1.007825032230

  Running in c1 symmetry.

  Rotational constants: A =      0.00059  B =      0.00059  C =      0.00035 [cm^-1]
  Rotational constants: A =     17.65614  B =     17.55273  C =     10.50436 [MHz]
  Nuclear repulsion = 17688.444368452597701

  Charge       = 1
  Multiplicity = 1
  Electrons    = 652
  Nalpha       = 326
  Nbeta        = 326

  ==> Algorithm <==

  SCF Algorithm Type is DF.
  DIIS enabled.
  MOM disabled.
  Fractional occupation disabled.
  Guess Type is SAD.
  Energy threshold   = 1.00e-08
  Density threshold  = 1.00e-08
  Integral threshold = 1.00e-12

  ==> Primary Basis <==

  Basis Set: JUN-CC-PVDZ
    Blend: JUN-CC-PVDZ
    Number of shells: 923
    Number of basis functions: 2019
    Number of Cartesian functions: 2122
    Spherical Harmonics?: true
    Max angular momentum: 2

   => Loading Basis Set <=

    Name: (JUN-CC-PVDZ AUX)
    Role: JKFIT
    Keyword: DF_BASIS_SCF
    atoms 1-2, 4-5, 10, 17-34, 41-53, 56-70, 73-89, 92-104, 109-119, 122-130 entry C          line   146 file /opt/software/pc2/EB-SW/software/PSI4/1.9-foss-2022a/share/psi4/basis/jun-cc-pvdz-jkfit.gbs 
    atoms 3, 6                                                               entry N          line   202 file /opt/software/pc2/EB-SW/software/PSI4/1.9-foss-2022a/share/psi4/basis/jun-cc-pvdz-jkfit.gbs 
    atoms 7-9, 11-16, 35-40, 54-55, 71-72, 90-91, 105-108, 120-121, 131-136  entry H          line    70 file /opt/software/pc2/EB-SW/software/PSI4/1.9-foss-2022a/share/psi4/basis/jun-cc-pvdz-jkfit.gbs 

  ==> Integral Setup <==

  ==> DiskDFJK: Density-Fitted J/K Matrices <==

    J tasked:                  Yes
    K tasked:                  Yes
    wK tasked:                  No
    OpenMP threads:             16
    Integrals threads:          16
    Memory [MiB]:            33617
    Algorithm:                Disk
    Integral Cache:           SAVE
    Schwarz Cutoff:          1E-12
    Fitting Condition:       1E-10

   => Auxiliary Basis Set <=

  Basis Set: (JUN-CC-PVDZ AUX)
    Blend: JUN-CC-PVDZ-JKFIT
    Number of shells: 3078
    Number of basis functions: 8896
    Number of Cartesian functions: 10198
    Spherical Harmonics?: true
    Max angular momentum: 3

  Minimum eigenvalue in the overlap matrix is 9.0280050872E-11.
  Reciprocal condition number of the overlap matrix is 3.9589573748E-12.
    Using canonical orthogonalization.
  Overall, 38 of 2019 possible MOs eliminated.


  ==> Pre-Iterations <==

  SCF Guess: Superposition of Atomic Densities via on-the-fly atomic UHF (no occupation information).

   -------------------------
    Irrep   Nso     Nmo    
   -------------------------
     A       2019    1981 
   -------------------------
    Total    2019    1981
   -------------------------

  ==> Iterations <==

                           Total Energy        Delta E     RMS |[F,P]|

   @DF-RHF iter SAD: -3967.13338438885557   -3.96713e+03   0.00000e+00 
   @DF-RHF iter   1: -3952.09841192836211    1.50350e+01   7.16394e-04 ADIIS/DIIS
   @DF-RHF iter   2: -3953.49301102184700   -1.39460e+00   2.33922e-04 ADIIS/DIIS
   @DF-RHF iter   3: -3953.61793681593826   -1.24926e-01   9.94562e-05 DIIS
   @DF-RHF iter   4: -3953.64026218823301   -2.23254e-02   4.06173e-05 DIIS
   @DF-RHF iter   5: -3953.64441187654393   -4.14969e-03   1.01274e-05 DIIS
   @DF-RHF iter   6: -3953.64483545021585   -4.23574e-04   4.57607e-06 DIIS
   @DF-RHF iter   7: -3953.64501612802451   -1.80678e-04   2.20302e-06 DIIS
   @DF-RHF iter   8: -3953.64507676545372   -6.06374e-05   1.11681e-06 DIIS
   @DF-RHF iter   9: -3953.64509418685157   -1.74214e-05   3.57762e-07 DIIS
   @DF-RHF iter  10: -3953.64509538283073   -1.19598e-06   1.45026e-07 DIIS
   @DF-RHF iter  11: -3953.64509553337666   -1.50546e-07   6.03073e-08 DIIS
   @DF-RHF iter  12: -3953.64509556593976   -3.25631e-08   2.97214e-08 DIIS
   @DF-RHF iter  13: -3953.64509557296606   -7.02630e-09   1.00080e-08 DIIS
   @DF-RHF iter  14: -3953.64509557399379   -1.02773e-09   4.69366e-09 DIIS
  Energy and wave function converged.


  ==> Post-Iterations <==

    Orbital Energies [Eh]
    ---------------------

    Doubly Occupied:                                                      

       1A    -15.821639     2A    -15.821107     3A    -11.516570  
       4A    -11.446891     5A    -11.445337     6A    -11.436975  
       7A    -11.436729     8A    -11.318357     9A    -11.317927  
      10A    -11.317869    11A    -11.317291    12A    -11.317256  
      13A    -11.317024    14A    -11.316978    15A    -11.316846  
      16A    -11.316700    17A    -11.316390    18A    -11.316341  
      19A    -11.316165    20A    -11.316004    21A    -11.315928  
      22A    -11.315813    23A    -11.315729    24A    -11.315628  
      25A    -11.315420    26A    -11.315248    27A    -11.315098  
      28A    -11.315025    29A    -11.314965    30A    -11.314753  
      31A    -11.314591    32A    -11.313910    33A    -11.313872  
      34A    -11.313807    35A    -11.313723    36A    -11.313683  
      37A    -11.313621    38A    -11.313591    39A    -11.313562  
      40A    -11.313339    41A    -11.313304    42A    -11.313231  
      43A    -11.313087    44A    -11.312568    45A    -11.312522  
      46A    -11.312518    47A    -11.312247    48A    -11.312214  
      49A    -11.312039    50A    -11.312005    51A    -11.311965  
      52A    -11.311945    53A    -11.311922    54A    -11.311636  
      55A    -11.311604    56A    -11.311557    57A    -11.311539  
      58A    -11.311530    59A    -11.311507    60A    -11.311111  
      61A    -11.311098    62A    -11.311054    63A    -11.311023  
      64A    -11.310985    65A    -11.310947    66A    -11.310929  
      67A    -11.310911    68A    -11.310871    69A    -11.310680  
      70A    -11.310651    71A    -11.310520    72A    -11.310512  
      73A    -11.310420    74A    -11.310387    75A    -11.310340  
      76A    -11.310321    77A    -11.310296    78A    -11.309909  
      79A    -11.309894    80A    -11.303850    81A    -11.303804  
      82A    -11.303771    83A    -11.303768    84A    -11.303714  
      85A    -11.303707    86A    -11.303677    87A    -11.303664  
      88A    -11.303403    89A    -11.303384    90A    -11.303272  
      91A    -11.303192    92A    -11.302944    93A    -11.302917  
      94A    -11.302884    95A    -11.302844    96A    -11.302368  
      97A    -11.302361    98A    -11.301476    99A    -11.301450  
     100A    -11.301415   101A    -11.301375   102A    -11.300900  
     103A    -11.300893   104A     -1.565170   105A     -1.420799  
     106A     -1.307429   107A     -1.291462   108A     -1.291343  
     109A     -1.272177   110A     -1.272164   111A     -1.267904  
     112A     -1.252113   113A     -1.247020   114A     -1.240418  
     115A     -1.240316   116A     -1.225668   117A     -1.224643  
     118A     -1.224634   119A     -1.207629   120A     -1.207625  
     121A     -1.204780   122A     -1.195379   123A     -1.195374  
     124A     -1.179980   125A     -1.176392   126A     -1.166655  
     127A     -1.164432   128A     -1.164359   129A     -1.163723  
     130A     -1.162107   131A     -1.139730   132A     -1.139694  
     133A     -1.127434   134A     -1.127424   135A     -1.119265  
     136A     -1.119241   137A     -1.116843   138A     -1.106034  
     139A     -1.097868   140A     -1.097856   141A     -1.091513  
     142A     -1.089202   143A     -1.089178   144A     -1.077245  
     145A     -1.073916   146A     -1.073903   147A     -1.058399  
     148A     -1.057877   149A     -1.054794   150A     -1.052012  
     151A     -1.052005   152A     -1.041242   153A     -1.022311  
     154A     -1.022308   155A     -1.009567   156A     -1.006538  
     157A     -1.006518   158A     -0.984014   159A     -0.957899  
     160A     -0.957825   161A     -0.956904   162A     -0.955637  
     163A     -0.955584   164A     -0.944708   165A     -0.944618  
     166A     -0.942229   167A     -0.942138   168A     -0.941042  
     169A     -0.922635   170A     -0.918628   171A     -0.904180  
     172A     -0.902255   173A     -0.899588   174A     -0.899502  
     175A     -0.897352   176A     -0.894492   177A     -0.885477  
     178A     -0.885455   179A     -0.878196   180A     -0.878189  
     181A     -0.837447   182A     -0.836085   183A     -0.835996  
     184A     -0.834030   185A     -0.833999   186A     -0.833676  
     187A     -0.833335   188A     -0.833309   189A     -0.818206  
     190A     -0.812801   191A     -0.803411   192A     -0.801939  
     193A     -0.800257   194A     -0.783709   195A     -0.778172  
     196A     -0.778092   197A     -0.777232   198A     -0.776157  
     199A     -0.775648   200A     -0.775595   201A     -0.773300  
     202A     -0.770142   203A     -0.768913   204A     -0.765261  
     205A     -0.765224   206A     -0.750070   207A     -0.750059  
     208A     -0.737637   209A     -0.736530   210A     -0.736510  
     211A     -0.733007   212A     -0.732998   213A     -0.729690  
     214A     -0.717002   215A     -0.713115   216A     -0.704147  
     217A     -0.703943   218A     -0.701487   219A     -0.701467  
     220A     -0.701295   221A     -0.701230   222A     -0.700025  
     223A     -0.692248   224A     -0.692212   225A     -0.690784  
     226A     -0.689728   227A     -0.687114   228A     -0.687095  
     229A     -0.680031   230A     -0.671460   231A     -0.665434  
     232A     -0.665409   233A     -0.659558   234A     -0.659534  
     235A     -0.651743   236A     -0.651606   237A     -0.650047  
     238A     -0.650009   239A     -0.649722   240A     -0.649479  
     241A     -0.645816   242A     -0.645679   243A     -0.645660  
     244A     -0.645321   245A     -0.642549   246A     -0.642530  
     247A     -0.639218   248A     -0.627457   249A     -0.627445  
     250A     -0.627421   251A     -0.627403   252A     -0.623958  
     253A     -0.622177   254A     -0.619644   255A     -0.619628  
     256A     -0.617263   257A     -0.617206   258A     -0.610466  
     259A     -0.609819   260A     -0.609746   261A     -0.608341  
     262A     -0.605312   263A     -0.601581   264A     -0.596778  
     265A     -0.595686   266A     -0.587407   267A     -0.587290  
     268A     -0.584117   269A     -0.584065   270A     -0.583272  
     271A     -0.579442   272A     -0.578514   273A     -0.578503  
     274A     -0.568004   275A     -0.567894   276A     -0.566124  
     277A     -0.566113   278A     -0.559823   279A     -0.559816  
     280A     -0.548875   281A     -0.547427   282A     -0.547374  
     283A     -0.545859   284A     -0.545845   285A     -0.541638  
     286A     -0.531602   287A     -0.527902   288A     -0.527897  
     289A     -0.524524   290A     -0.521000   291A     -0.517557  
     292A     -0.517527   293A     -0.510760   294A     -0.510206  
     295A     -0.498807   296A     -0.498704   297A     -0.493057  
     298A     -0.492855   299A     -0.492724   300A     -0.484929  
     301A     -0.484248   302A     -0.458682   303A     -0.458648  
     304A     -0.438314   305A     -0.438289   306A     -0.435911  
     307A     -0.435901   308A     -0.435814   309A     -0.405470  
     310A     -0.405450   311A     -0.401815   312A     -0.391141  
     313A     -0.388874   314A     -0.388852   315A     -0.382935  
     316A     -0.382863   317A     -0.359271   318A     -0.353924  
     319A     -0.353914   320A     -0.351631   321A     -0.337042  
     322A     -0.305972   323A     -0.305342   324A     -0.305328  
     325A     -0.255173   326A     -0.255163  

    Virtual:                                                              

     327A     -0.062412   328A     -0.062255   329A     -0.056663  
     330A     -0.052819   331A     -0.043999   332A     -0.038043  
     333A     -0.020527   334A     -0.019315   335A     -0.016681  
     336A     -0.016568   337A     -0.015784   338A     -0.014259  
     339A     -0.009776   340A     -0.004045   341A      0.001036  
     342A      0.001361   343A      0.003671   344A      0.005366  
     345A      0.005631   346A      0.008202   347A      0.009143  
     348A      0.009812   349A      0.010150   350A      0.013637  
     351A      0.015134   352A      0.015350   353A      0.018486  
     354A      0.018583   355A      0.020497   356A      0.020554  
     357A      0.022985   358A      0.026075   359A      0.028067  
     360A      0.028220   361A      0.029379   362A      0.029802  
     363A      0.030605   364A      0.031839   365A      0.031844  
     366A      0.033363   367A      0.034403   368A      0.035251  
     369A      0.039947   370A      0.041741   371A      0.042429  
     372A      0.043110   373A      0.043277   374A      0.046839  
     375A      0.049142   376A      0.053944   377A      0.054855  
     378A      0.054903   379A      0.054974   380A      0.055704  
     381A      0.056894   382A      0.058958   383A      0.059107  
     384A      0.061483   385A      0.062214   386A      0.062408  
     387A      0.064336   388A      0.064550   389A      0.064572  
     390A      0.064673   391A      0.065228   392A      0.070417  
     393A      0.072038   394A      0.072498   395A      0.072808  
     396A      0.073562   397A      0.075169   398A      0.075562  
     399A      0.077707   400A      0.078731   401A      0.082155  
     402A      0.083450   403A      0.085531   404A      0.086456  
     405A      0.086767   406A      0.088097   407A      0.089538  
     408A      0.089779   409A      0.091463   410A      0.094323  
     411A      0.094583   412A      0.094989   413A      0.098139  
     414A      0.099591   415A      0.101542   416A      0.101817  
     417A      0.103330   418A      0.105436   419A      0.105699  
     420A      0.106016   421A      0.106306   422A      0.108071  
     423A      0.108737   424A      0.110048   425A      0.112861  
     426A      0.113262   427A      0.114484   428A      0.115237  
     429A      0.115693   430A      0.119209   431A      0.120473  
     432A      0.120916   433A      0.121784   434A      0.122374  
     435A      0.123383   436A      0.127017   437A      0.127525  
     438A      0.128814   439A      0.128857   440A      0.131088  
     441A      0.131930   442A      0.132599   443A      0.133617  
     444A      0.133828   445A      0.138874   446A      0.141725  
     447A      0.142002   448A      0.142895   449A      0.143254  
     450A      0.144058   451A      0.144921   452A      0.146603  
     453A      0.147310   454A      0.149956   455A      0.151846  
     456A      0.152957   457A      0.153696   458A      0.154398  
     459A      0.156223   460A      0.156469   461A      0.157685  
     462A      0.158194   463A      0.159361   464A      0.159641  
     465A      0.159927   466A      0.160184   467A      0.160765  
     468A      0.161689   469A      0.162025   470A      0.162379  
     471A      0.162731   472A      0.163363   473A      0.165577  
     474A      0.166737   475A      0.167675   476A      0.168309  
     477A      0.169297   478A      0.169879   479A      0.170436  
     480A      0.173591   481A      0.174023   482A      0.174293  
     483A      0.176698   484A      0.177461   485A      0.177711  
     486A      0.177825   487A      0.178493   488A      0.181817  
     489A      0.181949   490A      0.182401   491A      0.183097  
     492A      0.185131   493A      0.186147   494A      0.186289  
     495A      0.187065   496A      0.188786   497A      0.189257  
     498A      0.191787   499A      0.192026   500A      0.192600  
     501A      0.193812   502A      0.194654   503A      0.195012  
     504A      0.195122   505A      0.199266   506A      0.199426  
     507A      0.200134   508A      0.202120   509A      0.202632  
     510A      0.202979   511A      0.207266   512A      0.208057  
     513A      0.209334   514A      0.209792   515A      0.211264  
     516A      0.211924   517A      0.212110   518A      0.213978  
     519A      0.215075   520A      0.215760   521A      0.216212  
     522A      0.216837   523A      0.218256   524A      0.218823  
     525A      0.219601   526A      0.219926   527A      0.220327  
     528A      0.220573   529A      0.223335   530A      0.226185  
     531A      0.228112   532A      0.228720   533A      0.229915  
     534A      0.230306   535A      0.230370   536A      0.230891  
     537A      0.232083   538A      0.232715   539A      0.234430  
     540A      0.237116   541A      0.237286   542A      0.237704  
     543A      0.238712   544A      0.238824   545A      0.240627  
     546A      0.243530   547A      0.243662   548A      0.244567  
     549A      0.245393   550A      0.245857   551A      0.246244  
     552A      0.249834   553A      0.250552   554A      0.253354  
     555A      0.253633   556A      0.253917   557A      0.255015  
     558A      0.257071   559A      0.258419   560A      0.258752  
     561A      0.258904   562A      0.259570   563A      0.260084  
     564A      0.261679   565A      0.262875   566A      0.265237  
     567A      0.265578   568A      0.266361   569A      0.266689  
     570A      0.268057   571A      0.268330   572A      0.268614  
     573A      0.270191   574A      0.271243   575A      0.271863  
     576A      0.272162   577A      0.273508   578A      0.273784  
     579A      0.275743   580A      0.276905   581A      0.278642  
     582A      0.279070   583A      0.280159   584A      0.280947  
     585A      0.281084   586A      0.282430   587A      0.282859  
     588A      0.284222   589A      0.285203   590A      0.285405  
     591A      0.286748   592A      0.288140   593A      0.288534  
     594A      0.289044   595A      0.290497   596A      0.291949  
     597A      0.292640   598A      0.293020   599A      0.295506  
     600A      0.295526   601A      0.296213   602A      0.297014  
     603A      0.297891   604A      0.298277   605A      0.299753  
     606A      0.300712   607A      0.300856   608A      0.302009  
     609A      0.302800   610A      0.304083   611A      0.304951  
     612A      0.305598   613A      0.307733   614A      0.310328  
     615A      0.313540   616A      0.313675   617A      0.314802  
     618A      0.315344   619A      0.316862   620A      0.318027  
     621A      0.318885   622A      0.319962   623A      0.320368  
     624A      0.320756   625A      0.321344   626A      0.324541  
     627A      0.326640   628A      0.327292   629A      0.329226  
     630A      0.330235   631A      0.330480   632A      0.331599  
     633A      0.332189   634A      0.333550   635A      0.333600  
     636A      0.334953   637A      0.335595   638A      0.336408  
     639A      0.337371   640A      0.339174   641A      0.342150  
     642A      0.343240   643A      0.344261   644A      0.345318  
     645A      0.346191   646A      0.346253   647A      0.346553  
     648A      0.347100   649A      0.347185   650A      0.347297  
     651A      0.349271   652A      0.350047   653A      0.351023  
     654A      0.351668   655A      0.352227   656A      0.352358  
     657A      0.353018   658A      0.353472   659A      0.354740  
     660A      0.355199   661A      0.355442   662A      0.356366  
     663A      0.358973   664A      0.359409   665A      0.359787  
     666A      0.360724   667A      0.361223   668A      0.362287  
     669A      0.363115   670A      0.363615   671A      0.365547  
     672A      0.365902   673A      0.366224   674A      0.367232  
     675A      0.367650   676A      0.368355   677A      0.369265  
     678A      0.372483   679A      0.372627   680A      0.374538  
     681A      0.375244   682A      0.377433   683A      0.377817  
     684A      0.379877   685A      0.379941   686A      0.381055  
     687A      0.381705   688A      0.381825   689A      0.382122  
     690A      0.383069   691A      0.383361   692A      0.384114  
     693A      0.385755   694A      0.386277   695A      0.387504  
     696A      0.387948   697A      0.389857   698A      0.390349  
     699A      0.390854   700A      0.393709   701A      0.400457  
     702A      0.400883   703A      0.401422   704A      0.402292  
     705A      0.402583   706A      0.402928   707A      0.403972  
     708A      0.404178   709A      0.405518   710A      0.405940  
     711A      0.406055   712A      0.407333   713A      0.407864  
     714A      0.409865   715A      0.410880   716A      0.411787  
     717A      0.412189   718A      0.413033   719A      0.413621  
     720A      0.416255   721A      0.416785   722A      0.417680  
     723A      0.418231   724A      0.418928   725A      0.419758  
     726A      0.420546   727A      0.421207   728A      0.424996  
     729A      0.425180   730A      0.425502   731A      0.425760  
     732A      0.426698   733A      0.427651   734A      0.429113  
     735A      0.429752   736A      0.430146   737A      0.430495  
     738A      0.433369   739A      0.435302   740A      0.436178  
     741A      0.437061   742A      0.437663   743A      0.440246  
     744A      0.440639   745A      0.441467   746A      0.443239  
     747A      0.443852   748A      0.444587   749A      0.446898  
     750A      0.447175   751A      0.449283   752A      0.451922  
     753A      0.453072   754A      0.454094   755A      0.454575  
     756A      0.454904   757A      0.455615   758A      0.456526  
     759A      0.457027   760A      0.458128   761A      0.459079  
     762A      0.462257   763A      0.465611   764A      0.465955  
     765A      0.466474   766A      0.467385   767A      0.467470  
     768A      0.468481   769A      0.468793   770A      0.469806  
     771A      0.472241   772A      0.474491   773A      0.474620  
     774A      0.475267   775A      0.480363   776A      0.483494  
     777A      0.483574   778A      0.483611   779A      0.488280  
     780A      0.488554   781A      0.489421   782A      0.490151  
     783A      0.490549   784A      0.494466   785A      0.495228  
     786A      0.495649   787A      0.502719   788A      0.503802  
     789A      0.508418   790A      0.508734   791A      0.510827  
     792A      0.512202   793A      0.512576   794A      0.516221  
     795A      0.516997   796A      0.517654   797A      0.518838  
     798A      0.521665   799A      0.522436   800A      0.523011  
     801A      0.524304   802A      0.525348   803A      0.525613  
     804A      0.527188   805A      0.527981   806A      0.528376  
     807A      0.528633   808A      0.529790   809A      0.532915  
     810A      0.535848   811A      0.538617   812A      0.538931  
     813A      0.539595   814A      0.540167   815A      0.543851  
     816A      0.545170   817A      0.546386   818A      0.547127  
     819A      0.547715   820A      0.551640   821A      0.553235  
     822A      0.553849   823A      0.554636   824A      0.555716  
     825A      0.563998   826A      0.566929   827A      0.568832  
     828A      0.568984   829A      0.569978   830A      0.570235  
     831A      0.573844   832A      0.578161   833A      0.579594  
     834A      0.581043   835A      0.581338   836A      0.582818  
     837A      0.588924   838A      0.590145   839A      0.593170  
     840A      0.595880   841A      0.604575   842A      0.604720  
     843A      0.606732   844A      0.608405   845A      0.608526  
     846A      0.609460   847A      0.609665   848A      0.614569  
     849A      0.617015   850A      0.617326   851A      0.622271  
     852A      0.629162   853A      0.629529   854A      0.633764  
     855A      0.635097   856A      0.637407   857A      0.637453  
     858A      0.639297   859A      0.640843   860A      0.641143  
     861A      0.641372   862A      0.642465   863A      0.647850  
     864A      0.649888   865A      0.650494   866A      0.650675  
     867A      0.654013   868A      0.655540   869A      0.656622  
     870A      0.659835   871A      0.667670   872A      0.668979  
     873A      0.669886   874A      0.673886   875A      0.675708  
     876A      0.679719   877A      0.681500   878A      0.682540  
     879A      0.686757   880A      0.689278   881A      0.691047  
     882A      0.691787   883A      0.694053   884A      0.694831  
     885A      0.695363   886A      0.699518   887A      0.699933  
     888A      0.702630   889A      0.705200   890A      0.710801  
     891A      0.715049   892A      0.721329   893A      0.726218  
     894A      0.733399   895A      0.733606   896A      0.737968  
     897A      0.738444   898A      0.738626   899A      0.742461  
     900A      0.744168   901A      0.744690   902A      0.748080  
     903A      0.750533   904A      0.751811   905A      0.752726  
     906A      0.753688   907A      0.756550   908A      0.757161  
     909A      0.758849   910A      0.760552   911A      0.763041  
     912A      0.765491   913A      0.766331   914A      0.767304  
     915A      0.767671   916A      0.768980   917A      0.769842  
     918A      0.776120   919A      0.778340   920A      0.778625  
     921A      0.780570   922A      0.784685   923A      0.784755  
     924A      0.785806   925A      0.786432   926A      0.786665  
     927A      0.787704   928A      0.791106   929A      0.792533  
     930A      0.796129   931A      0.796761   932A      0.796894  
     933A      0.799441   934A      0.801732   935A      0.803584  
     936A      0.805590   937A      0.807276   938A      0.810344  
     939A      0.810576   940A      0.811671   941A      0.813024  
     942A      0.817137   943A      0.817550   944A      0.818382  
     945A      0.818914   946A      0.819114   947A      0.819964  
     948A      0.821344   949A      0.821765   950A      0.824505  
     951A      0.826173   952A      0.827123   953A      0.827664  
     954A      0.829163   955A      0.830795   956A      0.832137  
     957A      0.833772   958A      0.836333   959A      0.838266  
     960A      0.839470   961A      0.839646   962A      0.841404  
     963A      0.841735   964A      0.843265   965A      0.845325  
     966A      0.848155   967A      0.849944   968A      0.850144  
     969A      0.853416   970A      0.857298   971A      0.857362  
     972A      0.862519   973A      0.864432   974A      0.865322  
     975A      0.867037   976A      0.867638   977A      0.868518  
     978A      0.870652   979A      0.871935   980A      0.872112  
     981A      0.872504   982A      0.872728   983A      0.876018  
     984A      0.877515   985A      0.878842   986A      0.880653  
     987A      0.882859   988A      0.883635   989A      0.884012  
     990A      0.888109   991A      0.888473   992A      0.888764  
     993A      0.894246   994A      0.895022   995A      0.897158  
     996A      0.898518   997A      0.899648   998A      0.900522  
     999A      0.900841  1000A      0.902687  1001A      0.903322  
    1002A      0.903636  1003A      0.904136  1004A      0.906716  
    1005A      0.906969  1006A      0.907136  1007A      0.907695  
    1008A      0.914757  1009A      0.915730  1010A      0.916523  
    1011A      0.918313  1012A      0.918472  1013A      0.920860  
    1014A      0.923813  1015A      0.931153  1016A      0.932526  
    1017A      0.932774  1018A      0.936511  1019A      0.943144  
    1020A      0.943551  1021A      0.943750  1022A      0.944149  
    1023A      0.949737  1024A      0.950378  1025A      0.952383  
    1026A      0.954040  1027A      0.955295  1028A      0.955376  
    1029A      0.955610  1030A      0.957887  1031A      0.960459  
    1032A      0.963231  1033A      0.965494  1034A      0.965611  
    1035A      0.967948  1036A      0.970002  1037A      0.970175  
    1038A      0.970539  1039A      0.972070  1040A      0.972835  
    1041A      0.979605  1042A      0.980327  1043A      0.980807  
    1044A      0.983152  1045A      0.984300  1046A      0.984981  
    1047A      0.986035  1048A      0.987168  1049A      0.989536  
    1050A      0.994621  1051A      0.995185  1052A      0.996001  
    1053A      0.996485  1054A      0.996971  1055A      0.997736  
    1056A      0.998311  1057A      0.998663  1058A      1.001742  
    1059A      1.002332  1060A      1.002471  1061A      1.003244  
    1062A      1.003493  1063A      1.010102  1064A      1.010473  
    1065A      1.010877  1066A      1.013189  1067A      1.014575  
    1068A      1.015299  1069A      1.016803  1070A      1.016981  
    1071A      1.017246  1072A      1.017821  1073A      1.018929  
    1074A      1.019475  1075A      1.019826  1076A      1.020239  
    1077A      1.020966  1078A      1.021596  1079A      1.022168  
    1080A      1.022721  1081A      1.023313  1082A      1.024597  
    1083A      1.025432  1084A      1.025962  1085A      1.026082  
    1086A      1.027016  1087A      1.027328  1088A      1.028154  
    1089A      1.028547  1090A      1.029967  1091A      1.030362  
    1092A      1.031087  1093A      1.031449  1094A      1.031824  
    1095A      1.032572  1096A      1.033622  1097A      1.034762  
    1098A      1.036607  1099A      1.038079  1100A      1.038580  
    1101A      1.039323  1102A      1.039599  1103A      1.040019  
    1104A      1.044340  1105A      1.046197  1106A      1.046334  
    1107A      1.046830  1108A      1.047222  1109A      1.049637  
    1110A      1.050194  1111A      1.050913  1112A      1.051734  
    1113A      1.052819  1114A      1.053536  1115A      1.054605  
    1116A      1.059802  1117A      1.061235  1118A      1.061973  
    1119A      1.068312  1120A      1.069685  1121A      1.069967  
    1122A      1.071112  1123A      1.077440  1124A      1.077670  
    1125A      1.078810  1126A      1.080053  1127A      1.081078  
    1128A      1.082839  1129A      1.083521  1130A      1.083663  
    1131A      1.086917  1132A      1.087101  1133A      1.088145  
    1134A      1.092203  1135A      1.092659  1136A      1.094745  
    1137A      1.095604  1138A      1.096382  1139A      1.099091  
    1140A      1.100315  1141A      1.100863  1142A      1.102152  
    1143A      1.106563  1144A      1.106581  1145A      1.108963  
    1146A      1.112122  1147A      1.112671  1148A      1.116207  
    1149A      1.117260  1150A      1.118846  1151A      1.119735  
    1152A      1.125198  1153A      1.125322  1154A      1.130205  
    1155A      1.133522  1156A      1.135354  1157A      1.135919  
    1158A      1.137572  1159A      1.138647  1160A      1.141195  
    1161A      1.141952  1162A      1.142464  1163A      1.143051  
    1164A      1.151527  1165A      1.151772  1166A      1.151880  
    1167A      1.153059  1168A      1.154518  1169A      1.154692  
    1170A      1.156139  1171A      1.160475  1172A      1.162515  
    1173A      1.164690  1174A      1.165177  1175A      1.166000  
    1176A      1.167723  1177A      1.168459  1178A      1.172313  
    1179A      1.173800  1180A      1.174358  1181A      1.175419  
    1182A      1.177273  1183A      1.183202  1184A      1.183483  
    1185A      1.196934  1186A      1.197158  1187A      1.197997  
    1188A      1.201862  1189A      1.202653  1190A      1.204953  
    1191A      1.210141  1192A      1.211601  1193A      1.211888  
    1194A      1.213883  1195A      1.219144  1196A      1.219808  
    1197A      1.220663  1198A      1.221159  1199A      1.226736  
    1200A      1.235068  1201A      1.235172  1202A      1.239058  
    1203A      1.240367  1204A      1.240442  1205A      1.244197  
    1206A      1.244471  1207A      1.244492  1208A      1.246648  
    1209A      1.252466  1210A      1.253193  1211A      1.255449  
    1212A      1.255649  1213A      1.257882  1214A      1.260879  
    1215A      1.261994  1216A      1.262277  1217A      1.263776  
    1218A      1.269622  1219A      1.269726  1220A      1.269800  
    1221A      1.270319  1222A      1.271775  1223A      1.276354  
    1224A      1.276705  1225A      1.279642  1226A      1.280937  
    1227A      1.281124  1228A      1.285386  1229A      1.285682  
    1230A      1.289529  1231A      1.289681  1232A      1.291396  
    1233A      1.291849  1234A      1.296015  1235A      1.298221  
    1236A      1.302495  1237A      1.305314  1238A      1.305487  
    1239A      1.306979  1240A      1.307228  1241A      1.308863  
    1242A      1.311332  1243A      1.313142  1244A      1.313356  
    1245A      1.317624  1246A      1.318983  1247A      1.320405  
    1248A      1.322245  1249A      1.323517  1250A      1.324404  
    1251A      1.333474  1252A      1.336502  1253A      1.337375  
    1254A      1.339766  1255A      1.343570  1256A      1.344820  
    1257A      1.344926  1258A      1.346207  1259A      1.348381  
    1260A      1.356059  1261A      1.356400  1262A      1.357315  
    1263A      1.358883  1264A      1.358959  1265A      1.359339  
    1266A      1.361537  1267A      1.363933  1268A      1.364328  
    1269A      1.365312  1270A      1.370339  1271A      1.371701  
    1272A      1.373894  1273A      1.375845  1274A      1.376102  
    1275A      1.376572  1276A      1.377018  1277A      1.378562  
    1278A      1.380292  1279A      1.383471  1280A      1.385840  
    1281A      1.386144  1282A      1.386634  1283A      1.389039  
    1284A      1.389512  1285A      1.392915  1286A      1.396485  
    1287A      1.396794  1288A      1.398712  1289A      1.399600  
    1290A      1.400436  1291A      1.401463  1292A      1.405256  
    1293A      1.411919  1294A      1.414379  1295A      1.417781  
    1296A      1.419077  1297A      1.419282  1298A      1.420515  
    1299A      1.421515  1300A      1.427481  1301A      1.433476  
    1302A      1.433591  1303A      1.434617  1304A      1.440271  
    1305A      1.440470  1306A      1.445256  1307A      1.445581  
    1308A      1.449698  1309A      1.453165  1310A      1.454786  
    1311A      1.454983  1312A      1.465900  1313A      1.466437  
    1314A      1.480691  1315A      1.487780  1316A      1.489461  
    1317A      1.489901  1318A      1.492341  1319A      1.493330  
    1320A      1.502141  1321A      1.502215  1322A      1.516736  
    1323A      1.532001  1324A      1.532266  1325A      1.541691  
    1326A      1.542999  1327A      1.546806  1328A      1.550245  
    1329A      1.552516  1330A      1.553483  1331A      1.554247  
    1332A      1.555620  1333A      1.556487  1334A      1.559376  
    1335A      1.559686  1336A      1.560279  1337A      1.563070  
    1338A      1.563503  1339A      1.563750  1340A      1.564521  
    1341A      1.565466  1342A      1.568335  1343A      1.569290  
    1344A      1.570019  1345A      1.572091  1346A      1.574722  
    1347A      1.574966  1348A      1.575845  1349A      1.578017  
    1350A      1.579391  1351A      1.580014  1352A      1.583761  
    1353A      1.584486  1354A      1.585214  1355A      1.586086  
    1356A      1.586390  1357A      1.586956  1358A      1.587525  
    1359A      1.588521  1360A      1.589819  1361A      1.589993  
    1362A      1.592050  1363A      1.594030  1364A      1.600722  
    1365A      1.601156  1366A      1.601264  1367A      1.605336  
    1368A      1.605563  1369A      1.605902  1370A      1.613017  
    1371A      1.613689  1372A      1.616620  1373A      1.616715  
    1374A      1.617128  1375A      1.617949  1376A      1.618020  
    1377A      1.619756  1378A      1.622033  1379A      1.625774  
    1380A      1.626085  1381A      1.626837  1382A      1.627452  
    1383A      1.634368  1384A      1.636855  1385A      1.638078  
    1386A      1.641836  1387A      1.644691  1388A      1.644987  
    1389A      1.645553  1390A      1.646636  1391A      1.648609  
    1392A      1.658417  1393A      1.658625  1394A      1.659036  
    1395A      1.663546  1396A      1.665175  1397A      1.665238  
    1398A      1.668165  1399A      1.669861  1400A      1.670982  
    1401A      1.671064  1402A      1.673434  1403A      1.674411  
    1404A      1.679306  1405A      1.685435  1406A      1.686281  
    1407A      1.687390  1408A      1.694983  1409A      1.696681  
    1410A      1.696895  1411A      1.697455  1412A      1.699165  
    1413A      1.699859  1414A      1.701182  1415A      1.712616  
    1416A      1.714431  1417A      1.717423  1418A      1.729022  
    1419A      1.735976  1420A      1.736766  1421A      1.737348  
    1422A      1.744851  1423A      1.751030  1424A      1.751238  
    1425A      1.758128  1426A      1.761135  1427A      1.765731  
    1428A      1.766818  1429A      1.771057  1430A      1.772847  
    1431A      1.774203  1432A      1.775796  1433A      1.776795  
    1434A      1.777241  1435A      1.779128  1436A      1.780242  
    1437A      1.781921  1438A      1.782396  1439A      1.785550  
    1440A      1.785698  1441A      1.785943  1442A      1.786690  
    1443A      1.792021  1444A      1.792677  1445A      1.794362  
    1446A      1.805949  1447A      1.806068  1448A      1.809316  
    1449A      1.809609  1450A      1.811877  1451A      1.812089  
    1452A      1.814532  1453A      1.814615  1454A      1.818563  
    1455A      1.819881  1456A      1.820370  1457A      1.822613  
    1458A      1.822872  1459A      1.824855  1460A      1.826226  
    1461A      1.830910  1462A      1.831174  1463A      1.831782  
    1464A      1.832326  1465A      1.832928  1466A      1.833491  
    1467A      1.833764  1468A      1.834560  1469A      1.835287  
    1470A      1.838237  1471A      1.838778  1472A      1.852102  
    1473A      1.852575  1474A      1.854785  1475A      1.855113  
    1476A      1.857592  1477A      1.860282  1478A      1.864195  
    1479A      1.864679  1480A      1.865746  1481A      1.869557  
    1482A      1.870839  1483A      1.871226  1484A      1.873096  
    1485A      1.873438  1486A      1.874275  1487A      1.874738  
    1488A      1.880304  1489A      1.883966  1490A      1.885992  
    1491A      1.886757  1492A      1.887928  1493A      1.888387  
    1494A      1.888580  1495A      1.889663  1496A      1.891201  
    1497A      1.892859  1498A      1.893586  1499A      1.895158  
    1500A      1.900144  1501A      1.902219  1502A      1.903769  
    1503A      1.907374  1504A      1.907690  1505A      1.908280  
    1506A      1.909552  1507A      1.910042  1508A      1.910174  
    1509A      1.910785  1510A      1.916087  1511A      1.917391  
    1512A      1.919109  1513A      1.920245  1514A      1.921387  
    1515A      1.922429  1516A      1.929420  1517A      1.930758  
    1518A      1.933920  1519A      1.938560  1520A      1.940893  
    1521A      1.941162  1522A      1.942562  1523A      1.942965  
    1524A      1.944182  1525A      1.955785  1526A      1.956004  
    1527A      1.958913  1528A      1.960226  1529A      1.960573  
    1530A      1.961935  1531A      1.964975  1532A      1.965376  
    1533A      1.965928  1534A      1.966723  1535A      1.968229  
    1536A      1.968718  1537A      1.969116  1538A      1.970072  
    1539A      1.973287  1540A      1.976644  1541A      1.979540  
    1542A      1.979667  1543A      1.981705  1544A      1.982705  
    1545A      1.984327  1546A      1.988479  1547A      1.990833  
    1548A      1.991257  1549A      1.996022  1550A      1.998574  
    1551A      2.001338  1552A      2.002168  1553A      2.004955  
    1554A      2.005159  1555A      2.007433  1556A      2.008059  
    1557A      2.009017  1558A      2.009290  1559A      2.015224  
    1560A      2.017312  1561A      2.018185  1562A      2.019138  
    1563A      2.019708  1564A      2.024666  1565A      2.026811  
    1566A      2.028799  1567A      2.029324  1568A      2.029853  
    1569A      2.030824  1570A      2.031771  1571A      2.032016  
    1572A      2.032702  1573A      2.035452  1574A      2.037090  
    1575A      2.037838  1576A      2.038742  1577A      2.039879  
    1578A      2.040743  1579A      2.041139  1580A      2.042690  
    1581A      2.043282  1582A      2.045837  1583A      2.045969  
    1584A      2.046726  1585A      2.047188  1586A      2.050256  
    1587A      2.050356  1588A      2.051446  1589A      2.053683  
    1590A      2.056093  1591A      2.059068  1592A      2.060476  
    1593A      2.060787  1594A      2.061177  1595A      2.062063  
    1596A      2.063527  1597A      2.065923  1598A      2.067011  
    1599A      2.068722  1600A      2.074563  1601A      2.074957  
    1602A      2.075650  1603A      2.076457  1604A      2.076553  
    1605A      2.077244  1606A      2.077582  1607A      2.079474  
    1608A      2.081199  1609A      2.083919  1610A      2.084797  
    1611A      2.085368  1612A      2.087352  1613A      2.091134  
    1614A      2.091363  1615A      2.093098  1616A      2.094164  
    1617A      2.094380  1618A      2.099799  1619A      2.103324  
    1620A      2.103736  1621A      2.105575  1622A      2.106144  
    1623A      2.107145  1624A      2.108176  1625A      2.108627  
    1626A      2.109053  1627A      2.112775  1628A      2.113058  
    1629A      2.120513  1630A      2.120802  1631A      2.128833  
    1632A      2.130352  1633A      2.130392  1634A      2.131667  
    1635A      2.137084  1636A      2.137561  1637A      2.139071  
    1638A      2.139219  1639A      2.141134  1640A      2.142654  
    1641A      2.144868  1642A      2.146128  1643A      2.147687  
    1644A      2.148365  1645A      2.149766  1646A      2.150029  
    1647A      2.150477  1648A      2.152026  1649A      2.153555  
    1650A      2.154430  1651A      2.155281  1652A      2.158498  
    1653A      2.162988  1654A      2.163106  1655A      2.168653  
    1656A      2.170781  1657A      2.172400  1658A      2.172659  
    1659A      2.173005  1660A      2.173216  1661A      2.174581  
    1662A      2.178003  1663A      2.181823  1664A      2.183223  
    1665A      2.183813  1666A      2.185913  1667A      2.187158  
    1668A      2.187322  1669A      2.191040  1670A      2.195371  
    1671A      2.196491  1672A      2.198052  1673A      2.198803  
    1674A      2.211308  1675A      2.212761  1676A      2.213028  
    1677A      2.213701  1678A      2.215290  1679A      2.216672  
    1680A      2.220750  1681A      2.223719  1682A      2.232462  
    1683A      2.233668  1684A      2.236200  1685A      2.240214  
    1686A      2.241278  1687A      2.244999  1688A      2.246529  
    1689A      2.253385  1690A      2.253830  1691A      2.258268  
    1692A      2.260222  1693A      2.262270  1694A      2.272640  
    1695A      2.274346  1696A      2.274388  1697A      2.276224  
    1698A      2.278297  1699A      2.280096  1700A      2.280477  
    1701A      2.281369  1702A      2.282634  1703A      2.283811  
    1704A      2.287735  1705A      2.290622  1706A      2.291228  
    1707A      2.291518  1708A      2.293728  1709A      2.294423  
    1710A      2.295091  1711A      2.297170  1712A      2.297605  
    1713A      2.308601  1714A      2.315226  1715A      2.319652  
    1716A      2.320225  1717A      2.332908  1718A      2.333428  
    1719A      2.336991  1720A      2.338576  1721A      2.340131  
    1722A      2.341032  1723A      2.344763  1724A      2.345237  
    1725A      2.367654  1726A      2.368693  1727A      2.372296  
    1728A      2.376878  1729A      2.380397  1730A      2.390687  
    1731A      2.392469  1732A      2.400546  1733A      2.401784  
    1734A      2.413668  1735A      2.413773  1736A      2.417144  
    1737A      2.417338  1738A      2.421485  1739A      2.421783  
    1740A      2.441097  1741A      2.441548  1742A      2.443099  
    1743A      2.450260  1744A      2.451548  1745A      2.456369  
    1746A      2.457476  1747A      2.461367  1748A      2.466381  
    1749A      2.470774  1750A      2.487889  1751A      2.488155  
    1752A      2.489577  1753A      2.491560  1754A      2.492299  
    1755A      2.493528  1756A      2.497053  1757A      2.498012  
    1758A      2.499546  1759A      2.500626  1760A      2.504542  
    1761A      2.504743  1762A      2.510515  1763A      2.513191  
    1764A      2.520414  1765A      2.522272  1766A      2.530841  
    1767A      2.534664  1768A      2.534724  1769A      2.535179  
    1770A      2.535919  1771A      2.539527  1772A      2.539688  
    1773A      2.542608  1774A      2.544791  1775A      2.551057  
    1776A      2.551154  1777A      2.562304  1778A      2.562572  
    1779A      2.562832  1780A      2.563362  1781A      2.566229  
    1782A      2.567163  1783A      2.581682  1784A      2.583888  
    1785A      2.589616  1786A      2.590696  1787A      2.592852  
    1788A      2.594371  1789A      2.596971  1790A      2.597797  
    1791A      2.598221  1792A      2.603149  1793A      2.605807  
    1794A      2.606103  1795A      2.613970  1796A      2.614597  
    1797A      2.614715  1798A      2.617990  1799A      2.620738  
    1800A      2.621086  1801A      2.621850  1802A      2.627209  
    1803A      2.628017  1804A      2.633664  1805A      2.634492  
    1806A      2.636036  1807A      2.640160  1808A      2.640299  
    1809A      2.640601  1810A      2.641541  1811A      2.644946  
    1812A      2.646051  1813A      2.646483  1814A      2.652788  
    1815A      2.670676  1816A      2.671840  1817A      2.680040  
    1818A      2.680263  1819A      2.680905  1820A      2.681607  
    1821A      2.682243  1822A      2.683418  1823A      2.688688  
    1824A      2.697893  1825A      2.702034  1826A      2.707860  
    1827A      2.708597  1828A      2.717077  1829A      2.719864  
    1830A      2.723500  1831A      2.728177  1832A      2.728753  
    1833A      2.747070  1834A      2.747535  1835A      2.748038  
    1836A      2.749421  1837A      2.750420  1838A      2.750536  
    1839A      2.756629  1840A      2.757255  1841A      2.759297  
    1842A      2.763054  1843A      2.763235  1844A      2.764769  
    1845A      2.765329  1846A      2.775816  1847A      2.776073  
    1848A      2.788813  1849A      2.788979  1850A      2.790396  
    1851A      2.790611  1852A      2.794380  1853A      2.796663  
    1854A      2.808676  1855A      2.813403  1856A      2.813856  
    1857A      2.819288  1858A      2.820506  1859A      2.823387  
    1860A      2.843080  1861A      2.843992  1862A      2.860465  
    1863A      2.868141  1864A      2.868341  1865A      2.877980  
    1866A      2.880136  1867A      2.884919  1868A      2.885093  
    1869A      2.912763  1870A      2.914884  1871A      2.915537  
    1872A      2.926061  1873A      2.931123  1874A      2.941711  
    1875A      2.942439  1876A      2.978187  1877A      2.978885  
    1878A      2.985472  1879A      2.986427  1880A      2.988928  
    1881A      2.996032  1882A      2.996773  1883A      2.998371  
    1884A      3.006172  1885A      3.006353  1886A      3.014875  
    1887A      3.021948  1888A      3.054798  1889A      3.058941  
    1890A      3.063106  1891A      3.063336  1892A      3.071769  
    1893A      3.073116  1894A      3.075897  1895A      3.076818  
    1896A      3.081734  1897A      3.083457  1898A      3.092008  
    1899A      3.093217  1900A      3.097353  1901A      3.098043  
    1902A      3.099448  1903A      3.100289  1904A      3.103937  
    1905A      3.112780  1906A      3.115554  1907A      3.123523  
    1908A      3.125134  1909A      3.125592  1910A      3.143362  
    1911A      3.143959  1912A      3.170685  1913A      3.202319  
    1914A      3.209322  1915A      3.209877  1916A      3.210397  
    1917A      3.211340  1918A      3.213717  1919A      3.217667  
    1920A      3.220760  1921A      3.224098  1922A      3.224804  
    1923A      3.242203  1924A      3.243825  1925A      3.244595  
    1926A      3.251999  1927A      3.309432  1928A      3.310585  
    1929A      3.318104  1930A      3.363633  1931A      3.377608  
    1932A      3.379580  1933A      3.382849  1934A      3.392852  
    1935A      3.396419  1936A      3.408251  1937A      3.412471  
    1938A      3.413137  1939A      3.418900  1940A      3.421932  
    1941A      3.429098  1942A      3.432299  1943A      3.441197  
    1944A      3.449084  1945A      3.457073  1946A      3.486365  
    1947A      3.522527  1948A      3.524200  1949A      3.531028  
    1950A      3.538596  1951A      3.539048  1952A      3.585530  
    1953A      3.587620  1954A      3.613121  1955A      3.615537  
    1956A      3.653314  1957A      3.695086  1958A      3.698432  
    1959A      3.699208  1960A      3.710557  1961A      3.726466  
    1962A      3.728033  1963A      3.791287  1964A      3.792229  
    1965A      3.820633  1966A      3.823638  1967A      3.853329  
    1968A      3.861341  1969A      3.885065  1970A      3.886835  
    1971A      3.897068  1972A      3.898195  1973A      3.906641  
    1974A      3.911449  1975A      3.918571  1976A      3.972487  
    1977A      3.975045  1978A      4.017955  1979A      4.175013  
    1980A      4.247324  1981A      4.339332  

    Final Occupation by Irrep:
              A 
    DOCC [   326 ]
    NA   [   326 ]
    NB   [   326 ]

  @DF-RHF Final Energy: -3953.64509557399379

   => Energetics <=

    Nuclear Repulsion Energy =          17688.4443684525977005
    One-Electron Energy =              -40589.4558713916339912
    Two-Electron Energy =               18947.3664073650434148
    Total Energy =                      -3953.6450955739928759

Computation Completed


Properties will be evaluated at   0.000000,   0.000000,   0.000000 [a0]

Properties computed using the SCF density matrix


 Multipole Moments:

 ------------------------------------------------------------------------------------
     Multipole            Electronic (a.u.)      Nuclear  (a.u.)        Total (a.u.)
 ------------------------------------------------------------------------------------

 L = 1.  Multiply by 2.5417464519 to convert [e a0] to [Debye]
 Dipole X            :          0.0016530            0.0004804            0.0021335
 Dipole Y            :         -1.5347456            1.8866171            0.3518715
 Dipole Z            :        -32.0854030           43.6704833           11.5850802
 Magnitude           :                                                   11.5904228

 ------------------------------------------------------------------------------------

*** tstop() called on n2cn0939 at Wed Jan 24 20:43:55 2024
Module time:
	user time   =   29375.03 seconds =     489.58 minutes
	system time =    2193.37 seconds =      36.56 minutes
	total time  =       8085 seconds =     134.75 minutes
Total time:
	user time   =   29375.03 seconds =     489.58 minutes
	system time =    2193.37 seconds =      36.56 minutes
	total time  =       8085 seconds =     134.75 minutes

  //>>>>>>>>>>>>>>>>>>>>>>>>>>>>>>>>>>>//
  //            Monomer A HF           //
  //<<<<<<<<<<<<<<<<<<<<<<<<<<<<<<<<<<<//

   => Libint2 <=

    Primary   basis highest AM E, G, H:  5, 4, 3
    Auxiliary basis highest AM E, G, H:  6, 5, 4
    Onebody   basis highest AM E, G, H:  6, 5, 4
    Solid Harmonics ordering:            gaussian

*** tstart() called on n2cn0939
*** at Wed Jan 24 20:43:55 2024

   => Loading Basis Set <=

    Name: JUN-CC-PVDZ
    Role: ORBITAL
    Keyword: BASIS
    atoms 1-2, 4-5, 10, 17-34, 41-53, 56-70, 73-89, 92-104, 109-119, 122-130 entry C          line   164 file /opt/software/pc2/EB-SW/software/PSI4/1.9-foss-2022a/share/psi4/basis/jun-cc-pvdz.gbs 
    atoms 3, 6                                                               entry N          line   198 file /opt/software/pc2/EB-SW/software/PSI4/1.9-foss-2022a/share/psi4/basis/jun-cc-pvdz.gbs 
    atoms 7-9, 11-16, 35-40, 54-55, 71-72, 90-91, 105-108, 120-121, 131-136  entry H          line    36 file /opt/software/pc2/EB-SW/software/PSI4/1.9-foss-2022a/share/psi4/basis/jun-cc-pvdz.gbs 


         ---------------------------------------------------------
                                   SCF
               by Justin Turney, Rob Parrish, Andy Simmonett
                          and Daniel G. A. Smith
                              RHF Reference
                       16 Threads,  44822 MiB Core
         ---------------------------------------------------------

  ==> Geometry <==

    Molecular point group: c1
    Full point group: C1

    Geometry (in Angstrom), charge = 1, multiplicity = 1:

       Center              X                  Y                   Z               Mass       
    ------------   -----------------  -----------------  -----------------  -----------------
         C            0.680062820275    -1.215917226251     6.659094504741    12.000000000000
         C           -0.680508179725    -1.215533226251     6.657066504741    12.000000000000
         N           -1.085639179725     0.102790773749     6.656068504741    14.003074004430
[...]
    1579A      2.162281  1580A      2.162824  1581A      2.168331  
    1582A      2.171502  1583A      2.171716  1584A      2.179637  
    1585A      2.180737  1586A      2.181287  1587A      2.182257  
    1588A      2.187945  1589A      2.188776  1590A      2.189478  
    1591A      2.191427  1592A      2.192195  1593A      2.194691  
    1594A      2.195677  1595A      2.196596  1596A      2.198198  
    1597A      2.200398  1598A      2.200626  1599A      2.200958  
    1600A      2.201126  1601A      2.202860  1602A      2.203128  
    1603A      2.205390  1604A      2.207372  1605A      2.209513  
    1606A      2.213769  1607A      2.214107  1608A      2.220140  
    1609A      2.220486  1610A      2.222365  1611A      2.222743  
    1612A      2.224432  1613A      2.224830  1614A      2.224841  
    1615A      2.228788  1616A      2.232031  1617A      2.232304  
    1618A      2.233237  1619A      2.238711  1620A      2.238901  
    1621A      2.239549  1622A      2.241322  1623A      2.247467  
    1624A      2.247777  1625A      2.248283  1626A      2.248773  
    1627A      2.257677  1628A      2.260341  1629A      2.261715  
    1630A      2.263389  1631A      2.264869  1632A      2.266490  
    1633A      2.269516  1634A      2.275093  1635A      2.275592  
    1636A      2.281371  1637A      2.282841  1638A      2.284281  
    1639A      2.290263  1640A      2.291000  1641A      2.296315  
    1642A      2.296764  1643A      2.302073  1644A      2.303739  
    1645A      2.304147  1646A      2.309052  1647A      2.314830  
    1648A      2.318447  1649A      2.324573  1650A      2.324889  
    1651A      2.325193  1652A      2.327146  1653A      2.329418  
    1654A      2.330536  1655A      2.331089  1656A      2.332955  
    1657A      2.334303  1658A      2.335076  1659A      2.337865  
    1660A      2.339906  1661A      2.341455  1662A      2.342174  
    1663A      2.342342  1664A      2.344793  1665A      2.345785  
    1666A      2.345879  1667A      2.346395  1668A      2.349052  
    1669A      2.349400  1670A      2.368039  1671A      2.372325  
    1672A      2.372903  1673A      2.383564  1674A      2.387953  
    1675A      2.388642  1676A      2.390309  1677A      2.391814  
    1678A      2.392963  1679A      2.396994  1680A      2.418304  
    1681A      2.419493  1682A      2.423566  1683A      2.427499  
    1684A      2.431926  1685A      2.441607  1686A      2.443198  
    1687A      2.448405  1688A      2.452087  1689A      2.452138  
    1690A      2.453052  1691A      2.461417  1692A      2.464290  
    1693A      2.464385  1694A      2.467722  1695A      2.467982  
    1696A      2.471895  1697A      2.472152  1698A      2.474735  
    1699A      2.482538  1700A      2.491029  1701A      2.491440  
    1702A      2.494611  1703A      2.501633  1704A      2.506282  
    1705A      2.507279  1706A      2.510367  1707A      2.511482  
    1708A      2.516272  1709A      2.539075  1710A      2.539185  
    1711A      2.540155  1712A      2.542015  1713A      2.542807  
    1714A      2.544992  1715A      2.547579  1716A      2.548542  
    1717A      2.549188  1718A      2.551136  1719A      2.556509  
    1720A      2.556666  1721A      2.564191  1722A      2.571088  
    1723A      2.571587  1724A      2.579182  1725A      2.580041  
    1726A      2.583718  1727A      2.584229  1728A      2.585080  
    1729A      2.586228  1730A      2.588563  1731A      2.588687  
    1732A      2.593190  1733A      2.593508  1734A      2.601306  
    1735A      2.601454  1736A      2.612803  1737A      2.612938  
    1738A      2.613208  1739A      2.613778  1740A      2.616650  
    1741A      2.617595  1742A      2.632615  1743A      2.637651  
    1744A      2.640536  1745A      2.641419  1746A      2.643579  
    1747A      2.645380  1748A      2.647144  1749A      2.648563  
    1750A      2.648947  1751A      2.649183  1752A      2.652769  
    1753A      2.655067  1754A      2.655933  1755A      2.656131  
    1756A      2.665655  1757A      2.666014  1758A      2.666288  
    1759A      2.667561  1760A      2.670392  1761A      2.670550  
    1762A      2.673563  1763A      2.676793  1764A      2.677576  
    1765A      2.680999  1766A      2.684363  1767A      2.685709  
    1768A      2.687021  1769A      2.691174  1770A      2.691241  
    1771A      2.691590  1772A      2.692366  1773A      2.696044  
    1774A      2.697289  1775A      2.704108  1776A      2.720677  
    1777A      2.730671  1778A      2.730777  1779A      2.730961  
    1780A      2.731326  1781A      2.731951  1782A      2.740045  
    1783A      2.752171  1784A      2.752629  1785A      2.760168  
    1786A      2.760876  1787A      2.772107  1788A      2.773059  
    1789A      2.775825  1790A      2.779673  1791A      2.780422  
    1792A      2.799123  1793A      2.799843  1794A      2.801630  
    1795A      2.802167  1796A      2.802196  1797A      2.809174  
    1798A      2.811773  1799A      2.813736  1800A      2.815020  
    1801A      2.815771  1802A      2.816006  1803A      2.816853  
    1804A      2.827997  1805A      2.828261  1806A      2.837072  
    1807A      2.840105  1808A      2.841418  1809A      2.841741  
    1810A      2.842216  1811A      2.845549  1812A      2.860329  
    1813A      2.864902  1814A      2.865402  1815A      2.869753  
    1816A      2.871294  1817A      2.874422  1818A      2.877479  
    1819A      2.894727  1820A      2.895885  1821A      2.896767  
    1822A      2.913237  1823A      2.915950  1824A      2.917708  
    1825A      2.917857  1826A      2.926163  1827A      2.927401  
    1828A      2.929638  1829A      2.934931  1830A      2.935011  
    1831A      2.949585  1832A      2.963139  1833A      2.964750  
    1834A      2.965347  1835A      2.974995  1836A      2.976375  
    1837A      2.992100  1838A      2.992688  1839A      2.998608  
    1840A      3.016849  1841A      3.029323  1842A      3.030010  
    1843A      3.035351  1844A      3.038673  1845A      3.041294  
    1846A      3.046839  1847A      3.047520  1848A      3.048062  
    1849A      3.057526  1850A      3.057653  1851A      3.063435  
    1852A      3.072842  1853A      3.108509  1854A      3.112787  
    1855A      3.113112  1856A      3.122434  1857A      3.127058  
    1858A      3.127629  1859A      3.132445  1860A      3.134249  
    1861A      3.142021  1862A      3.142893  1863A      3.147076  
    1864A      3.148527  1865A      3.149299  1866A      3.149464  
    1867A      3.150274  1868A      3.153524  1869A      3.162151  
    1870A      3.167677  1871A      3.173144  1872A      3.174759  
    1873A      3.175260  1874A      3.193104  1875A      3.193691  
    1876A      3.220072  1877A      3.252787  1878A      3.259402  
    1879A      3.260801  1880A      3.261448  1881A      3.261988  
    1882A      3.264370  1883A      3.268165  1884A      3.271151  
    1885A      3.274546  1886A      3.275374  1887A      3.288437  
    1888A      3.292760  1889A      3.295018  1890A      3.295867  
    1891A      3.302469  1892A      3.305889  1893A      3.319640  
    1894A      3.361206  1895A      3.362330  1896A      3.370090  
    1897A      3.395035  1898A      3.415617  1899A      3.429816  
    1900A      3.432049  1901A      3.436934  1902A      3.445872  
    1903A      3.449463  1904A      3.461108  1905A      3.464580  
    1906A      3.465364  1907A      3.470933  1908A      3.474017  
    1909A      3.481159  1910A      3.485063  1911A      3.493574  
    1912A      3.509085  1913A      3.525548  1914A      3.538848  
    1915A      3.572436  1916A      3.574442  1917A      3.576024  
    1918A      3.582764  1919A      3.589930  1920A      3.637427  
    1921A      3.639613  1922A      3.645552  1923A      3.664654  
    1924A      3.666842  1925A      3.705018  1926A      3.747523  
    1927A      3.749172  1928A      3.750451  1929A      3.758550  
    1930A      3.763125  1931A      3.778611  1932A      3.779040  
    1933A      3.817249  1934A      3.841912  1935A      3.843227  
    1936A      3.868654  1937A      3.871437  1938A      3.874575  
    1939A      3.904549  1940A      3.912947  1941A      3.937685  
    1942A      3.939640  1943A      3.948183  1944A      3.949193  
    1945A      3.958332  1946A      3.959100  1947A      3.964450  
    1948A      3.970935  1949A      4.024617  1950A      4.027408  
    1951A      4.070927  1952A      4.208141  1953A      4.209577  
    1954A      4.228890  1955A      4.301467  1956A      4.350597  
    1957A      4.368383  1958A      4.393435  1959A      4.483896  
    1960A      4.735830  1961A      4.775567  1962A      4.830346  
    1963A      4.848036  1964A      4.937644  1965A      5.049741  
    1966A      5.057616  1967A      5.066502  1968A      5.111503  
    1969A      5.126134  1970A      5.391154  1971A      5.422643  
    1972A      5.734505  1973A      5.751220  1974A      6.067837  
    1975A     18.201492  1976A     18.453755  1977A     18.471725  
    1978A     18.559356  1979A     18.833861  1980A     25.342197  
    1981A     25.376230  

    Final Occupation by Irrep:
              A 
    DOCC [   300 ]
    NA   [   300 ]
    NB   [   300 ]

  @DF-RHF Final Energy: -3650.33762657559737

   => Energetics <=

    Nuclear Repulsion Energy =          15611.4211649754324753
    One-Electron Energy =              -36072.0760322891364922
    Two-Electron Energy =               16810.3172407381061930
    Total Energy =                      -3650.3376265755978238

Computation Completed


Properties will be evaluated at   0.000000,   0.000000,   0.000000 [a0]

Properties computed using the SCF density matrix


 Multipole Moments:

 ------------------------------------------------------------------------------------
     Multipole            Electronic (a.u.)      Nuclear  (a.u.)        Total (a.u.)
 ------------------------------------------------------------------------------------

 L = 1.  Multiply by 2.5417464519 to convert [e a0] to [Debye]
 Dipole X            :         -0.0009127            0.0002112           -0.0007015
 Dipole Y            :          0.0041751           -0.0044281           -0.0002530
 Dipole Z            :        622.4101512         -622.4128621           -0.0027108
 Magnitude           :                                                    0.0028115

 ------------------------------------------------------------------------------------

*** tstop() called on n2cn0939 at Wed Jan 24 22:53:36 2024
Module time:
	user time   =   20633.06 seconds =     343.88 minutes
	system time =    1637.56 seconds =      27.29 minutes
	total time  =       4503 seconds =      75.05 minutes
Total time:
	user time   =   56401.02 seconds =     940.02 minutes
	system time =    4259.48 seconds =      70.99 minutes
	total time  =      15866 seconds =     264.43 minutes
  Constructing Basis Sets for SAPT...

   => Loading Basis Set <=

    Name: (JUN-CC-PVDZ AUX)
    Role: RIFIT
    Keyword: DF_BASIS_SAPT
    atoms 1-2, 4-5, 10, 17-34, 41-53, 56-70, 73-89, 92-104, 109-119, 122-130 entry C          line   100 file /opt/software/pc2/EB-SW/software/PSI4/1.9-foss-2022a/share/psi4/basis/jun-cc-pvdz-ri.gbs 
    atoms 3, 6                                                               entry N          line   144 file /opt/software/pc2/EB-SW/software/PSI4/1.9-foss-2022a/share/psi4/basis/jun-cc-pvdz-ri.gbs 
    atoms 7-9, 11-16, 35-40, 54-55, 71-72, 90-91, 105-108, 120-121, 131-136  entry H          line    30 file /opt/software/pc2/EB-SW/software/PSI4/1.9-foss-2022a/share/psi4/basis/jun-cc-pvdz-ri.gbs 

   => Loading Basis Set <=

    Name: (JUN-CC-PVDZ AUX)
    Role: JKFIT
    Keyword: DF_BASIS_ELST
    atoms 1-2, 4-5, 10, 17-34, 41-53, 56-70, 73-89, 92-104, 109-119, 122-130 entry C          line   146 file /opt/software/pc2/EB-SW/software/PSI4/1.9-foss-2022a/share/psi4/basis/jun-cc-pvdz-jkfit.gbs 
    atoms 3, 6                                                               entry N          line   202 file /opt/software/pc2/EB-SW/software/PSI4/1.9-foss-2022a/share/psi4/basis/jun-cc-pvdz-jkfit.gbs 
    atoms 7-9, 11-16, 35-40, 54-55, 71-72, 90-91, 105-108, 120-121, 131-136  entry H          line    70 file /opt/software/pc2/EB-SW/software/PSI4/1.9-foss-2022a/share/psi4/basis/jun-cc-pvdz-jkfit.gbs 


  //>>>>>>>>>>>>>>>>>>>>>>>>>>>>>>>>>>>//
  //               SSAPT0              //
  //<<<<<<<<<<<<<<<<<<<<<<<<<<<<<<<<<<<//


*** tstart() called on n2cn0939
*** at Wed Jan 24 22:53:38 2024

        SAPT0  
    Ed Hohenstein
     6 June 2009

      Orbital Information
  --------------------------
    NSO        =      2019
    NMO        =      1981
    NRI        =      7157
    NRI (Elst) =      8896
    NOCC A     =        26
    NOCC B     =       300
    FOCC A     =         7
    FOCC B     =        96
    NVIR A     =      1955
    NVIR B     =      1681

    Elst10,r            =    -0.007761621146 [Eh]
    Exch10              =    -0.000000272224 [Eh]
    Exch10 (S^2)        =    -0.000000272224 [Eh]

    Iter     Energy [mEh]          dE [mEh]         Residual      Time [s]
       1      -0.01061727       0.010617266       0.892834023           432
       2      -0.00965732      -0.000959942       0.184099296           957
       3      -0.01043106       0.000773732       0.034122557          1451
       4      -0.01042791      -0.000003150       0.013290818          1990
       5      -0.01041274      -0.000015169       0.002787335          2414
       6      -0.01041317       0.000000437       0.001416386          2835
       7      -0.01041378       0.000000609       0.000604668          3276
       8      -0.01041377      -0.000000010       0.000230455          3722
       9      -0.01041370      -0.000000071       0.000073024          4200
      10      -0.01041369      -0.000000012       0.000016164          4753
      11      -0.01041370       0.000000007       0.000005626          5243
      12      -0.01041370       0.000000001       0.000001829          5683
      13      -0.01041370      -0.000000001       0.000000724          6256

    CHF Iterations converged


    Iter     Energy [mEh]          dE [mEh]         Residual      Time [s]
       1      -3.68758306       3.687583061      33.258831146           729
       2      -2.38961233      -1.297970732       3.807477990          1385
       3      -2.38240428      -0.007208054       1.327642296          1977
       4      -2.42636940       0.043965129       0.402802508          2653
       5      -2.43176032       0.005390911       0.137594009          3265
       6      -2.43129143      -0.000468886       0.089965510          3895
       7      -2.43003355      -0.001257884       0.042892759          4474
       8      -2.43017402       0.000140471       0.026296638          5125
       9      -2.43051532       0.000341299       0.015916689          5768
      10      -2.43040466      -0.000110659       0.011806909          6465
      11      -2.43035322      -0.000051438       0.005003595          7024
      12      -2.43035964       0.000006427       0.002384610          7749
      13      -2.43037173       0.000012084       0.001041781          8509
      14      -2.43037452       0.000002792       0.000563853          9021
      15      -2.43037224      -0.000002279       0.000382711          9532
      16      -2.43037021      -0.000002031       0.000164127          9989
      17      -2.43037147       0.000001260       0.000060837         10535
      18      -2.43037163       0.000000157       0.000026097         10984
      19      -2.43037150      -0.000000127       0.000016644         11422
      20      -2.43037144      -0.000000062       0.000007604         11926
      21      -2.43037147       0.000000029       0.000003631         12410
      22      -2.43037148       0.000000012       0.000001527         12850
      23      -2.43037148      -0.000000003       0.000000533         13266

    CHF Iterations converged

    Ind20,r (A<-B)      =    -0.000010413697 [Eh]
    Ind20,r (B<-A)      =    -0.002430371477 [Eh]
    Ind20,r             =    -0.002440785174 [Eh]
    Exch-Ind20,r (A<-B) =     0.000000043871 [Eh]
    Exch-Ind20,r (B<-A) =     0.000000261361 [Eh]
    Exch-Ind20,r        =     0.000000305232 [Eh]
    Disp20              =    -0.001302158725 [Eh]
    Disp20 (SS)         =    -0.000651079362 [Eh]
    Disp20 (OS)         =    -0.000651079362 [Eh]
    Exch-Disp20         =     0.000000092152 [Eh]
    Exch-Disp20 (SS)    =     0.000000069644 [Eh]
    Exch-Disp20 (OS)    =     0.000000022508 [Eh]

    SAPT Results 
  --------------------------------------------------------------------------------------------------------
    Electrostatics                 -7.76162115 [mEh]      -4.87049080 [kcal/mol]     -20.37813351 [kJ/mol]
      Elst10,r                     -7.76162115 [mEh]      -4.87049080 [kcal/mol]     -20.37813351 [kJ/mol]

    Exchange                       -0.00027222 [mEh]      -0.00017082 [kcal/mol]      -0.00071472 [kJ/mol]
      Exch10                       -0.00027222 [mEh]      -0.00017082 [kcal/mol]      -0.00071472 [kJ/mol]
      Exch10(S^2)                  -0.00027222 [mEh]      -0.00017082 [kcal/mol]      -0.00071472 [kJ/mol]

    Induction                      -2.46911080 [mEh]      -1.54939042 [kcal/mol]      -6.48264952 [kJ/mol]
      Ind20,r                      -2.44078517 [mEh]      -1.53161582 [kcal/mol]      -6.40828059 [kJ/mol]
      Exch-Ind20,r                  0.00030523 [mEh]       0.00019154 [kcal/mol]       0.00080139 [kJ/mol]
      delta HF,r (2)               -0.02863086 [mEh]      -0.01796614 [kcal/mol]      -0.07517032 [kJ/mol]

    Dispersion                     -1.30206657 [mEh]      -0.81705911 [kcal/mol]      -3.41857532 [kJ/mol]
      Disp20                       -1.30215872 [mEh]      -0.81711694 [kcal/mol]      -3.41881726 [kJ/mol]
      Exch-Disp20                   0.00009215 [mEh]       0.00005783 [kcal/mol]       0.00024194 [kJ/mol]
      Disp20 (SS)                  -0.65107936 [mEh]      -0.40855847 [kcal/mol]      -1.70940863 [kJ/mol]
      Disp20 (OS)                  -0.65107936 [mEh]      -0.40855847 [kcal/mol]      -1.70940863 [kJ/mol]
      Exch-Disp20 (SS)              0.00006964 [mEh]       0.00004370 [kcal/mol]       0.00018285 [kJ/mol]
      Exch-Disp20 (OS)              0.00002251 [mEh]       0.00001412 [kcal/mol]       0.00005910 [kJ/mol]

  Total HF                        -10.23100417 [mEh]      -6.42005205 [kcal/mol]     -26.86149776 [kJ/mol]
  Total SAPT0                     -11.53307075 [mEh]      -7.23711116 [kcal/mol]     -30.28007307 [kJ/mol]

  Special recipe for scaled SAPT0 (see Manual):
    Electrostatics sSAPT0          -7.76162115 [mEh]      -4.87049080 [kcal/mol]     -20.37813351 [kJ/mol]
    Exchange sSAPT0                -0.00027222 [mEh]      -0.00017082 [kcal/mol]      -0.00071472 [kJ/mol]
    Induction sSAPT0               -2.46911080 [mEh]      -1.54939042 [kcal/mol]      -6.48264952 [kJ/mol]
    Dispersion sSAPT0              -1.30206657 [mEh]      -0.81705911 [kcal/mol]      -3.41857532 [kJ/mol]
  Total sSAPT0                    -11.53307075 [mEh]      -7.23711116 [kcal/mol]     -30.28007307 [kJ/mol]
  --------------------------------------------------------------------------------------------------------

*** tstop() called on n2cn0939 at Thu Jan 25 13:29:39 2024
Module time:
	user time   =   81878.77 seconds =    1364.65 minutes
	system time =    4469.08 seconds =      74.48 minutes
	total time  =      52561 seconds =     876.02 minutes
Total time:
	user time   =  138281.58 seconds =    2304.69 minutes
	system time =    8728.57 seconds =     145.48 minutes
	total time  =      68429 seconds =    1140.48 minutes

    Psi4 stopped on: Thursday, 25 January 2024 01:29PM
    Psi4 wall time for execution: 19:00:30.48

*** Psi4 exiting successfully. Buy a developer a beer!
